       N       E                     dE             d eps       ncg     rms          rms(c)
DAV:   1     0.866257710621E+03    0.86626E+03   -0.43817E+04 12312   0.163E+03
DAV:   2     0.140439401839E+02   -0.85221E+03   -0.81396E+03 10076   0.522E+02
DAV:   3    -0.444677100667E+02   -0.58512E+02   -0.54333E+02 11736   0.152E+02
DAV:   4    -0.464844805375E+02   -0.20168E+01   -0.20019E+01 11392   0.263E+01
DAV:   5    -0.465364079473E+02   -0.51927E-01   -0.51915E-01 11628   0.434E+00    0.290E+01
DAV:   6    -0.618480060636E+02   -0.15312E+02   -0.13814E+02 11276   0.135E+02    0.384E+01
DAV:   7    -0.405388449101E+02    0.21309E+02   -0.53055E+01 11200   0.870E+01    0.497E+00
DAV:   8    -0.404970239057E+02    0.41821E-01   -0.37647E+00 12692   0.134E+01    0.296E+00
DAV:   9    -0.404226954566E+02    0.74328E-01   -0.51221E-01 11508   0.712E+00    0.112E+00
DAV:  10    -0.404110975154E+02    0.11598E-01   -0.34853E-02 11484   0.203E+00    0.207E-01
DAV:  11    -0.404110973133E+02    0.20208E-06   -0.38156E-03 13352   0.468E-01    0.147E-01
DAV:  12    -0.404109286537E+02    0.16866E-03   -0.42788E-04 12192   0.190E-01    0.607E-02
DAV:  13    -0.404108923657E+02    0.36288E-04   -0.94052E-05 14352   0.796E-02    0.124E-02
DAV:  14    -0.404108919668E+02    0.39886E-06   -0.17345E-05 13488   0.346E-02    0.112E-02
DAV:  15    -0.404108900183E+02    0.19486E-05   -0.25595E-06 12136   0.155E-02    0.311E-03
DAV:  16    -0.404108897364E+02    0.28189E-06   -0.35754E-07 13884   0.487E-03    0.762E-04
DAV:  17    -0.404108896605E+02    0.75881E-07   -0.22661E-08  8476   0.122E-03    0.305E-04
DAV:  18    -0.404108896497E+02    0.10805E-07   -0.45709E-09  5732   0.657E-04    0.126E-04
DAV:  19    -0.404108896500E+02   -0.27831E-09   -0.71488E-10  5652   0.193E-04
   1 F= -.40410890E+02 E0= -.40410856E+02  d E =-.404109E+02  mag=     0.0000
       N       E                     dE             d eps       ncg     rms          rms(c)
DAV:   1    -0.199105727248E+03   -0.15869E+03   -0.20376E+03 10084   0.561E+02    0.965E+01
DAV:   2    -0.954517094228E+02    0.10365E+03   -0.10076E+03 11508   0.251E+02    0.641E+01
DAV:   3    -0.655465633215E+02    0.29905E+02   -0.32035E+02 11196   0.173E+02    0.442E+01
DAV:   4    -0.423091895286E+02    0.23237E+02   -0.86549E+01 11256   0.967E+01    0.536E+00
DAV:   5    -0.421872632864E+02    0.12193E+00   -0.95550E+00 10668   0.295E+01    0.108E+01
DAV:   6    -0.410493893563E+02    0.11379E+01   -0.22556E+00 12016   0.143E+01    0.587E-01
DAV:   7    -0.410539056079E+02   -0.45163E-02   -0.12794E-01 10544   0.231E+00    0.914E-01
DAV:   8    -0.410442966823E+02    0.96089E-02   -0.21575E-02 13136   0.129E+00    0.942E-02
DAV:   9    -0.410444360544E+02   -0.13937E-03   -0.14466E-03 11768   0.258E-01    0.286E-02
DAV:  10    -0.410444371178E+02   -0.10634E-05   -0.14042E-04 10744   0.915E-02    0.110E-02
DAV:  11    -0.410444401796E+02   -0.30618E-05   -0.18948E-05 12304   0.376E-02    0.826E-03
DAV:  12    -0.410444402785E+02   -0.98853E-07   -0.33935E-06 12512   0.169E-02    0.455E-03
DAV:  13    -0.410444400624E+02    0.21605E-06   -0.31245E-07 11344   0.489E-03    0.210E-03
DAV:  14    -0.410444399285E+02    0.13390E-06   -0.14083E-07 10876   0.319E-03    0.218E-04
DAV:  15    -0.410444398974E+02    0.31059E-07   -0.54393E-09  5776   0.513E-04    0.183E-04
DAV:  16    -0.410444398947E+02    0.27321E-08   -0.14495E-09  5572   0.355E-04
   2 F= -.41044440E+02 E0= -.41043856E+02  d E =-.633550E+00  mag=     0.0000
       N       E                     dE             d eps       ncg     rms          rms(c)
DAV:   1    -0.898013669252E+02   -0.48757E+02   -0.40096E+02 10816   0.214E+02    0.734E+01
DAV:   2    -0.149981075468E+03   -0.60180E+02   -0.81370E+02 10432   0.320E+02    0.675E+01
DAV:   3    -0.490261600027E+02    0.10095E+03   -0.27523E+02 11328   0.147E+02    0.197E+01
DAV:   4    -0.497357783302E+02   -0.70962E+00   -0.33038E+00 10600   0.106E+01    0.203E+01
DAV:   5    -0.495860899294E+02    0.14969E+00   -0.69188E-02 12880   0.192E+00    0.198E+01
DAV:   6    -0.436144678137E+02    0.59716E+01   -0.25465E+01 12984   0.379E+01    0.103E+01
DAV:   7    -0.443182324734E+02   -0.70376E+00   -0.40536E+00 11704   0.194E+01    0.122E+01
DAV:   8    -0.430902039764E+02    0.12280E+01   -0.23621E+00 11072   0.144E+01    0.622E+00
DAV:   9    -0.424089907341E+02    0.68121E+00   -0.45508E-01 10288   0.413E+00    0.456E+00
DAV:  10    -0.420058677247E+02    0.40312E+00   -0.16503E-01 10808   0.189E+00    0.325E+00
DAV:  11    -0.416332608056E+02    0.37261E+00   -0.39917E-01 11232   0.307E+00    0.121E+00
DAV:  12    -0.415946013076E+02    0.38659E-01   -0.10136E-01 11436   0.188E+00    0.483E-01
DAV:  13    -0.415910542334E+02    0.35471E-02   -0.71825E-03 11760   0.409E-01    0.364E-01
DAV:  14    -0.415885201702E+02    0.25341E-02   -0.48384E-03 11496   0.611E-01    0.187E-01
DAV:  15    -0.415874140533E+02    0.11061E-02   -0.18797E-03 12328   0.223E-01    0.526E-02
DAV:  16    -0.415874012837E+02    0.12770E-04   -0.48697E-04 11144   0.157E-01    0.130E-02
DAV:  17    -0.415874010144E+02    0.26936E-06   -0.42699E-05 10512   0.344E-02    0.926E-03
DAV:  18    -0.415874008224E+02    0.19197E-06   -0.26770E-06 13696   0.111E-02    0.459E-03
DAV:  19    -0.415873997451E+02    0.10773E-05   -0.23785E-06 10640   0.111E-02    0.358E-03
DAV:  20    -0.415873997024E+02    0.42648E-07   -0.25406E-07 11936   0.508E-03    0.976E-04
DAV:  21    -0.415873996355E+02    0.66897E-07   -0.60834E-08 10712   0.139E-03    0.102E-04
DAV:  22    -0.415873996351E+02    0.46748E-09   -0.62437E-09  5900   0.621E-04
   3 F= -.41587400E+02 E0= -.41586913E+02  d E =-.117651E+01  mag=    -0.0000
       N       E                     dE             d eps       ncg     rms          rms(c)
DAV:   1    -0.415982250362E+02   -0.10825E-01   -0.83442E-02 10512   0.332E+00    0.113E+00
DAV:   2    -0.416308359375E+02   -0.32611E-01   -0.25913E-01 11280   0.504E+00    0.202E+00
DAV:   3    -0.415875901591E+02    0.43246E-01   -0.12071E-01 11168   0.354E+00    0.127E-01
DAV:   4    -0.415875538424E+02    0.36317E-04   -0.23328E-03 10496   0.267E-01    0.644E-02
DAV:   5    -0.415875231887E+02    0.30654E-04   -0.92944E-05 12024   0.891E-02    0.119E-02
DAV:   6    -0.415875211079E+02    0.20808E-05   -0.42053E-06 10600   0.150E-02    0.176E-03
DAV:   7    -0.415875207365E+02    0.37141E-06   -0.28097E-07 11184   0.469E-03    0.819E-04
DAV:   8    -0.415875205732E+02    0.16329E-06   -0.17282E-08  7272   0.118E-03    0.261E-04
DAV:   9    -0.415875205093E+02    0.63890E-07   -0.33139E-09  5688   0.439E-04    0.941E-05
DAV:  10    -0.415875205074E+02    0.19299E-08   -0.96952E-10  5464   0.261E-04
   4 F= -.41587521E+02 E0= -.41587036E+02  d E =-.117663E+01  mag=     0.0000
       N       E                     dE             d eps       ncg     rms          rms(c)
DAV:   1    -0.411417913811E+02    0.44573E+00   -0.20221E+01 11864   0.138E+02    0.694E+00
DAV:   2    -0.427405811112E+02   -0.15988E+01   -0.15685E+01 11312   0.354E+01    0.922E+00
DAV:   3    -0.417978671913E+02    0.94271E+00   -0.33897E+00 11216   0.200E+01    0.227E+00
DAV:   4    -0.417416236506E+02    0.56244E-01   -0.15389E-01 10928   0.364E+00    0.593E-01
DAV:   5    -0.417362319793E+02    0.53917E-02   -0.18867E-02 12000   0.955E-01    0.121E-01
DAV:   6    -0.417362932523E+02   -0.61273E-04   -0.18015E-03 10864   0.455E-01    0.555E-02
DAV:   7    -0.417363074814E+02   -0.14229E-04   -0.11213E-04 12112   0.697E-02    0.141E-02
DAV:   8    -0.417363071894E+02    0.29197E-06   -0.12268E-05 11736   0.289E-02    0.537E-03
DAV:   9    -0.417363066428E+02    0.54663E-06   -0.12222E-06 12360   0.105E-02    0.103E-03
DAV:  10    -0.417363065554E+02    0.87379E-07   -0.69830E-08 10224   0.209E-03    0.293E-04
DAV:  11    -0.417363065355E+02    0.19887E-07   -0.56522E-09  5792   0.839E-04    0.138E-04
DAV:  12    -0.417363065318E+02    0.37217E-08   -0.23079E-09  5656   0.509E-04
   5 F= -.41736307E+02 E0= -.41736136E+02  d E =-.148786E+00  mag=    -0.0000
       N       E                     dE             d eps       ncg     rms          rms(c)
DAV:   1    -0.404005451821E+02    0.13358E+01   -0.52064E+01 11640   0.221E+02    0.114E+01
DAV:   2    -0.444682649817E+02   -0.40677E+01   -0.40469E+01 11424   0.579E+01    0.144E+01
DAV:   3    -0.419787933760E+02    0.24895E+01   -0.83895E+00 11224   0.329E+01    0.342E+00
DAV:   4    -0.418483504237E+02    0.13044E+00   -0.36454E-01 10800   0.519E+00    0.954E-01
DAV:   5    -0.418349543511E+02    0.13396E-01   -0.45340E-02 12048   0.144E+00    0.190E-01
DAV:   6    -0.418351420730E+02   -0.18772E-03   -0.41759E-03 10864   0.660E-01    0.905E-02
DAV:   7    -0.418351893753E+02   -0.47302E-04   -0.28040E-04 11960   0.121E-01    0.211E-02
DAV:   8    -0.418351890406E+02    0.33469E-06   -0.26378E-05 11656   0.422E-02    0.841E-03
DAV:   9    -0.418351876388E+02    0.14019E-05   -0.30096E-06 13312   0.179E-02    0.178E-03
DAV:  10    -0.418351875530E+02    0.85802E-07   -0.25121E-07 11368   0.436E-03    0.813E-04
DAV:  11    -0.418351875075E+02    0.45424E-07   -0.28204E-08  7136   0.191E-03    0.280E-04
DAV:  12    -0.418351875128E+02   -0.52642E-08   -0.66776E-09  5768   0.793E-04
   6 F= -.41835188E+02 E0= -.41835399E+02  d E =-.247667E+00  mag=     0.0000
       N       E                     dE             d eps       ncg     rms          rms(c)
DAV:   1    -0.406819084889E+02    0.11533E+01   -0.47820E+01 10936   0.214E+02    0.115E+01
DAV:   2    -0.451251806007E+02   -0.44433E+01   -0.47219E+01 11288   0.596E+01    0.173E+01
DAV:   3    -0.420313930412E+02    0.30938E+01   -0.10510E+01 11280   0.336E+01    0.369E+00
DAV:   4    -0.419488486695E+02    0.82544E-01   -0.39982E-01 11680   0.591E+00    0.166E+00
DAV:   5    -0.419196330427E+02    0.29216E-01   -0.48966E-02 12808   0.250E+00    0.315E-01
DAV:   6    -0.419195112662E+02    0.12178E-03   -0.77205E-03 11552   0.728E-01    0.137E-01
DAV:   7    -0.419194700991E+02    0.41167E-04   -0.25664E-04 12952   0.162E-01    0.460E-02
DAV:   8    -0.419194766036E+02   -0.65045E-05   -0.47084E-05 12592   0.537E-02    0.122E-02
DAV:   9    -0.419194753674E+02    0.12362E-05   -0.40163E-06 10944   0.252E-02    0.270E-03
DAV:  10    -0.419194753476E+02    0.19896E-07   -0.43149E-07 12764   0.567E-03    0.591E-04
DAV:  11    -0.419194753546E+02   -0.70740E-08   -0.26808E-08  9056   0.220E-03
   7 F= -.41919475E+02 E0= -.41919513E+02  d E =-.842878E-01  mag=     0.0000
       N       E                     dE             d eps       ncg     rms          rms(c)
DAV:   1    -0.418444084437E+02    0.75067E-01   -0.31588E+00 11552   0.567E+01    0.313E+00
DAV:   2    -0.421784062517E+02   -0.33400E+00   -0.30908E+00 11296   0.159E+01    0.490E+00
DAV:   3    -0.419301411138E+02    0.24827E+00   -0.81827E-01 11168   0.953E+00    0.895E-01
DAV:   4    -0.419250321529E+02    0.51090E-02   -0.23912E-02 11040   0.140E+00    0.407E-01
DAV:   5    -0.419232574291E+02    0.17747E-02   -0.35193E-03 12048   0.610E-01    0.680E-02
DAV:   6    -0.419232549444E+02    0.24847E-05   -0.47527E-04 11064   0.189E-01    0.364E-02
DAV:   7    -0.419232523108E+02    0.26336E-05   -0.21113E-05 13264   0.412E-02    0.992E-03
DAV:   8    -0.419232536393E+02   -0.13285E-05   -0.22591E-06 11424   0.114E-02    0.177E-03
DAV:   9    -0.419232537406E+02   -0.10134E-06   -0.13598E-07 12128   0.374E-03    0.657E-04
DAV:  10    -0.419232537674E+02   -0.26816E-07   -0.12102E-08  6568   0.110E-03    0.882E-05
DAV:  11    -0.419232537756E+02   -0.81709E-08   -0.29568E-09  5768   0.528E-04
   8 F= -.41923254E+02 E0= -.41923370E+02  d E =-.880663E-01  mag=     0.0000
       N       E                     dE             d eps       ncg     rms          rms(c)
DAV:   1    -0.423219315093E+02   -0.39868E+00   -0.21830E+01 11744   0.133E+02    0.118E+01
DAV:   2    -0.455695516341E+02   -0.32476E+01   -0.27507E+01 11272   0.553E+01    0.167E+01
DAV:   3    -0.419695798813E+02    0.36000E+01   -0.96614E+00 11176   0.361E+01    0.184E+00
DAV:   4    -0.419509080816E+02    0.18672E-01   -0.29318E-01 11368   0.311E+00    0.109E+00
DAV:   5    -0.419395569623E+02    0.11351E-01   -0.38202E-02 11792   0.178E+00    0.257E-01
DAV:   6    -0.419391232786E+02    0.43368E-03   -0.68557E-03 10960   0.840E-01    0.157E-01
DAV:   7    -0.419389783357E+02    0.14494E-03   -0.90142E-04 11472   0.308E-01    0.446E-02
DAV:   8    -0.419389558020E+02    0.22534E-04   -0.97445E-05 11456   0.101E-01    0.994E-03
DAV:   9    -0.419389547789E+02    0.10231E-05   -0.71312E-06 11984   0.241E-02    0.287E-03
DAV:  10    -0.419389544398E+02    0.33906E-06   -0.48451E-07 12136   0.629E-03    0.619E-04
DAV:  11    -0.419389543276E+02    0.11224E-06   -0.37117E-08 10312   0.142E-03    0.344E-04
DAV:  12    -0.419389543161E+02    0.11418E-07   -0.76183E-09  5776   0.925E-04    0.464E-05
DAV:  13    -0.419389543139E+02    0.22028E-08   -0.12098E-09  5544   0.319E-04
   9 F= -.41938954E+02 E0= -.41939219E+02  d E =-.157005E-01  mag=     0.0000
       N       E                     dE             d eps       ncg     rms          rms(c)
DAV:   1    -0.419599195104E+02   -0.20965E-01   -0.13404E+00 11400   0.323E+01    0.277E+00
DAV:   2    -0.421449551998E+02   -0.18504E+00   -0.17083E+00 11312   0.132E+01    0.438E+00
DAV:   3    -0.419446359551E+02    0.20032E+00   -0.63001E-01 11176   0.842E+00    0.669E-01
DAV:   4    -0.419413644682E+02    0.32715E-02   -0.17190E-02 11080   0.118E+00    0.205E-01
DAV:   5    -0.419408738759E+02    0.49059E-03   -0.11717E-03 12560   0.265E-01    0.376E-02
DAV:   6    -0.419408763496E+02   -0.24737E-05   -0.15272E-04 10752   0.120E-01    0.285E-02
DAV:   7    -0.419408743487E+02    0.20008E-05   -0.16856E-05 12336   0.405E-02    0.540E-03
DAV:   8    -0.419408749700E+02   -0.62123E-06   -0.13198E-06 10680   0.115E-02    0.171E-03
DAV:   9    -0.419408750300E+02   -0.60021E-07   -0.12909E-07 12744   0.337E-03    0.256E-04
DAV:  10    -0.419408750651E+02   -0.35072E-07   -0.53832E-09  5828   0.828E-04    0.912E-05
DAV:  11    -0.419408750674E+02   -0.23392E-08   -0.13385E-09  5592   0.315E-04
  10 F= -.41940875E+02 E0= -.41941109E+02  d E =-.176213E-01  mag=     0.0000
       N       E                     dE             d eps       ncg     rms          rms(c)
DAV:   1    -0.417793609079E+02    0.16151E+00   -0.45510E+00 12400   0.660E+01    0.243E+00
DAV:   2    -0.420368360927E+02   -0.25748E+00   -0.27775E+00 11248   0.137E+01    0.282E+00
DAV:   3    -0.419640683595E+02    0.72768E-01   -0.35003E-01 11264   0.649E+00    0.113E+00
DAV:   4    -0.419500022879E+02    0.14066E-01   -0.32313E-02 11464   0.208E+00    0.303E-01
DAV:   5    -0.419488021687E+02    0.12001E-02   -0.52162E-03 12608   0.560E-01    0.497E-02
DAV:   6    -0.419488366259E+02   -0.34457E-04   -0.57298E-04 10656   0.255E-01    0.293E-02
DAV:   7    -0.419488377472E+02   -0.11213E-05   -0.30989E-05 12848   0.427E-02    0.812E-03
DAV:   8    -0.419488390237E+02   -0.12765E-05   -0.26623E-06 10768   0.142E-02    0.158E-03
DAV:   9    -0.419488391021E+02   -0.78438E-07   -0.13377E-07 11864   0.346E-03    0.640E-04
DAV:  10    -0.419488391633E+02   -0.61156E-07   -0.89654E-09  5912   0.791E-04    0.119E-04
DAV:  11    -0.419488391774E+02   -0.14097E-07   -0.27052E-09  5596   0.474E-04    0.419E-05
DAV:  12    -0.419488391751E+02    0.23065E-08   -0.58247E-10  5640   0.231E-04
  11 F= -.41948839E+02 E0= -.41948885E+02  d E =-.796411E-02  mag=    -0.0000
       N       E                     dE             d eps       ncg     rms          rms(c)
DAV:   1    -0.417824654957E+02    0.16637E+00   -0.45996E+00 12504   0.662E+01    0.242E+00
DAV:   2    -0.420405363578E+02   -0.25807E+00   -0.27610E+00 11248   0.137E+01    0.283E+00
DAV:   3    -0.419663398236E+02    0.74197E-01   -0.34499E-01 11280   0.647E+00    0.112E+00
DAV:   4    -0.419524464764E+02    0.13893E-01   -0.31895E-02 11504   0.206E+00    0.302E-01
DAV:   5    -0.419512644187E+02    0.11821E-02   -0.52579E-03 12696   0.566E-01    0.503E-02
DAV:   6    -0.419512962790E+02   -0.31860E-04   -0.53950E-04 10656   0.245E-01    0.254E-02
DAV:   7    -0.419512995292E+02   -0.32503E-05   -0.25889E-05 12048   0.337E-02    0.821E-03
DAV:   8    -0.419513007044E+02   -0.11751E-05   -0.26079E-06 11216   0.144E-02    0.142E-03
DAV:   9    -0.419513007857E+02   -0.81311E-07   -0.15189E-07 11712   0.360E-03    0.527E-04
DAV:  10    -0.419513008500E+02   -0.64349E-07   -0.84302E-09  5824   0.735E-04    0.105E-04
DAV:  11    -0.419513008586E+02   -0.85638E-08   -0.21384E-09  5652   0.396E-04
  12 F= -.41951301E+02 E0= -.41951058E+02  d E =-.104258E-01  mag=    -0.0000
       N       E                     dE             d eps       ncg     rms          rms(c)
DAV:   1    -0.419176031182E+02    0.33698E-01   -0.20023E+00 11704   0.423E+01    0.259E+00
DAV:   2    -0.421181109400E+02   -0.20051E+00   -0.18506E+00 11256   0.130E+01    0.380E+00
DAV:   3    -0.419602142184E+02    0.15790E+00   -0.48122E-01 11176   0.768E+00    0.753E-01
DAV:   4    -0.419538433774E+02    0.63708E-02   -0.18878E-02 11016   0.129E+00    0.194E-01
DAV:   5    -0.419533598005E+02    0.48358E-03   -0.23758E-03 12080   0.331E-01    0.403E-02
DAV:   6    -0.419533622725E+02   -0.24719E-05   -0.26023E-04 11000   0.164E-01    0.282E-02
DAV:   7    -0.419533582853E+02    0.39872E-05   -0.20765E-05 13184   0.391E-02    0.688E-03
DAV:   8    -0.419533581350E+02    0.15029E-06   -0.17819E-06 10816   0.120E-02    0.129E-03
DAV:   9    -0.419533580342E+02    0.10076E-06   -0.10489E-07 11384   0.283E-03    0.595E-04
DAV:  10    -0.419533579677E+02    0.66504E-07   -0.90811E-09  5912   0.105E-03    0.858E-05
DAV:  11    -0.419533579629E+02    0.48567E-08   -0.29048E-09  5544   0.434E-04
  13 F= -.41953358E+02 E0= -.41953024E+02  d E =-.205710E-02  mag=    -0.0000
       N       E                     dE             d eps       ncg     rms          rms(c)
DAV:   1    -0.419533288886E+02    0.29079E-04   -0.16992E-03 11600   0.123E+00    0.753E-02
DAV:   2    -0.419535031883E+02   -0.17430E-03   -0.15784E-03 11264   0.378E-01    0.114E-01
DAV:   3    -0.419533663084E+02    0.13688E-03   -0.41507E-04 11192   0.223E-01    0.226E-02
DAV:   4    -0.419533602910E+02    0.60174E-05   -0.17022E-05 10976   0.401E-02    0.557E-03
DAV:   5    -0.419533596664E+02    0.62466E-06   -0.20383E-06 12264   0.995E-03    0.120E-03
DAV:   6    -0.419533596183E+02    0.48081E-07   -0.20981E-07 10968   0.463E-03    0.814E-04
DAV:   7    -0.419533595850E+02    0.33291E-07   -0.14142E-08  5780   0.112E-03    0.179E-04
DAV:   8    -0.419533595656E+02    0.19372E-07   -0.41998E-09  5448   0.523E-04    0.501E-05
DAV:   9    -0.419533595638E+02    0.18317E-08   -0.10659E-09  5280   0.241E-04
  14 F= -.41953360E+02 E0= -.41953024E+02  d E =-.205871E-02  mag=    -0.0000
       N       E                     dE             d eps       ncg     rms          rms(c)
DAV:   1    -0.419512746894E+02    0.20849E-02   -0.91700E-01 11216   0.286E+01    0.209E+00
DAV:   2    -0.420742701919E+02   -0.12300E+00   -0.10629E+00 11296   0.101E+01    0.332E+00
DAV:   3    -0.419558393975E+02    0.11843E+00   -0.35231E-01 11176   0.638E+00    0.484E-01
DAV:   4    -0.419542767637E+02    0.15626E-02   -0.94098E-03 11016   0.816E-01    0.189E-01
DAV:   5    -0.419538673919E+02    0.40937E-03   -0.81828E-04 12184   0.250E-01    0.364E-02
DAV:   6    -0.419538659928E+02    0.13990E-05   -0.11933E-04 11344   0.912E-02    0.189E-02
DAV:   7    -0.419538655687E+02    0.42414E-06   -0.79347E-06 13184   0.259E-02    0.429E-03
DAV:   8    -0.419538662477E+02   -0.67903E-06   -0.60394E-07 11144   0.658E-03    0.646E-04
DAV:   9    -0.419538662980E+02   -0.50262E-07   -0.61614E-08 10872   0.261E-03    0.408E-04
DAV:  10    -0.419538663237E+02   -0.25668E-07   -0.54971E-09  5736   0.724E-04    0.612E-05
DAV:  11    -0.419538663242E+02   -0.52569E-09   -0.14152E-09  5608   0.281E-04
  15 F= -.41953866E+02 E0= -.41953510E+02  d E =-.506760E-03  mag=    -0.0000
       N       E                     dE             d eps       ncg     rms          rms(c)
DAV:   1    -0.419537902561E+02    0.76068E-04   -0.53420E-02 11344   0.696E+00    0.511E-01
DAV:   2    -0.419611628881E+02   -0.73726E-02   -0.61344E-02 11296   0.246E+00    0.815E-01
DAV:   3    -0.419540502856E+02    0.71126E-02   -0.21011E-02 11168   0.157E+00    0.118E-01
DAV:   4    -0.419539535988E+02    0.96687E-04   -0.54020E-04 10920   0.192E-01    0.479E-02
DAV:   5    -0.419539247881E+02    0.28811E-04   -0.53602E-05 12120   0.646E-02    0.859E-03
DAV:   6    -0.419539238177E+02    0.97049E-06   -0.73226E-06 10920   0.228E-02    0.466E-03
DAV:   7    -0.419539234815E+02    0.33613E-06   -0.45850E-07 13496   0.618E-03    0.106E-03
DAV:   8    -0.419539233326E+02    0.14894E-06   -0.34427E-08  9080   0.153E-03    0.159E-04
DAV:   9    -0.419539233135E+02    0.19114E-07   -0.44178E-09  5656   0.688E-04    0.104E-04
DAV:  10    -0.419539233079E+02    0.55279E-08   -0.96761E-10  5488   0.314E-04
  16 F= -.41953923E+02 E0= -.41953571E+02  d E =-.563744E-03  mag=     0.0000
       N       E                     dE             d eps       ncg     rms          rms(c)
DAV:   1    -0.419423154135E+02    0.11608E-01   -0.25619E-01 12000   0.168E+01    0.520E-01
DAV:   2    -0.419585080730E+02   -0.16193E-01   -0.16443E-01 11160   0.321E+00    0.629E-01
DAV:   3    -0.419548057755E+02    0.37023E-02   -0.18323E-02 11232   0.152E+00    0.235E-01
DAV:   4    -0.419542506280E+02    0.55515E-03   -0.12682E-03 11336   0.376E-01    0.860E-02
DAV:   5    -0.419541270628E+02    0.12357E-03   -0.26405E-04 11496   0.140E-01    0.123E-02
DAV:   6    -0.419541283115E+02   -0.12487E-05   -0.47512E-05 10960   0.677E-02    0.634E-03
DAV:   7    -0.419541282961E+02    0.15425E-07   -0.16718E-06 11352   0.798E-03    0.298E-03
DAV:   8    -0.419541282382E+02    0.57877E-07   -0.18723E-07 12064   0.370E-03    0.364E-04
DAV:   9    -0.419541281976E+02    0.40562E-07   -0.14147E-08  6752   0.110E-03    0.148E-04
DAV:  10    -0.419541281811E+02    0.16546E-07   -0.25695E-09  5568   0.394E-04    0.308E-05
DAV:  11    -0.419541281803E+02    0.79672E-09   -0.60888E-10  5424   0.216E-04
  17 F= -.41954128E+02 E0= -.41953719E+02  d E =-.204872E-03  mag=     0.0000
       N       E                     dE             d eps       ncg     rms          rms(c)
DAV:   1    -0.419539016502E+02    0.22653E-03   -0.49668E-03 11968   0.233E+00    0.723E-02
DAV:   2    -0.419542183303E+02   -0.31668E-03   -0.31988E-03 11176   0.448E-01    0.874E-02
DAV:   3    -0.419541458064E+02    0.72524E-04   -0.35459E-04 11240   0.212E-01    0.328E-02
DAV:   4    -0.419541347707E+02    0.11036E-04   -0.24610E-05 11336   0.525E-02    0.121E-02
DAV:   5    -0.419541319958E+02    0.27749E-05   -0.51747E-06 11520   0.196E-02    0.173E-03
DAV:   6    -0.419541319793E+02    0.16546E-07   -0.93294E-07 11000   0.950E-03    0.896E-04
DAV:   7    -0.419541319603E+02    0.18979E-07   -0.31797E-08  9384   0.112E-03    0.419E-04
DAV:   8    -0.419541319470E+02    0.13277E-07   -0.34737E-09  5536   0.555E-04    0.491E-05
DAV:   9    -0.419541319418E+02    0.52514E-08   -0.89690E-10  5256   0.280E-04
  18 F= -.41954132E+02 E0= -.41953715E+02  d E =-.208634E-03  mag=     0.0000
       N       E                     dE             d eps       ncg     rms          rms(c)
DAV:   1    -0.419530630754E+02    0.10689E-02   -0.27208E-02 11744   0.553E+00    0.209E-01
DAV:   2    -0.419551372296E+02   -0.20742E-02   -0.19331E-02 11720   0.113E+00    0.300E-01
DAV:   3    -0.419542140323E+02    0.92320E-03   -0.34460E-03 11184   0.645E-01    0.722E-02
DAV:   4    -0.419541812466E+02    0.32786E-04   -0.11390E-04 11568   0.966E-02    0.360E-02
DAV:   5    -0.419541675577E+02    0.13689E-04   -0.26666E-05 11640   0.547E-02    0.485E-03
DAV:   6    -0.419541681001E+02   -0.54248E-06   -0.37142E-06 10680   0.154E-02    0.166E-03
DAV:   7    -0.419541681343E+02   -0.34148E-07   -0.15679E-07 13056   0.449E-03    0.114E-03
DAV:   8    -0.419541682116E+02   -0.77338E-07   -0.23727E-08  6752   0.157E-03    0.107E-04
DAV:   9    -0.419541682220E+02   -0.10361E-07   -0.35971E-09  5408   0.515E-04    0.473E-05
DAV:  10    -0.419541682244E+02   -0.24229E-08   -0.69143E-10  5304   0.207E-04
  19 F= -.41954168E+02 E0= -.41953738E+02  d E =-.362827E-04  mag=    -0.0000
       N       E                     dE             d eps       ncg     rms          rms(c)
DAV:   1    -0.419538733525E+02    0.29487E-03   -0.73897E-03 11776   0.288E+00    0.109E-01
DAV:   2    -0.419544346446E+02   -0.56129E-03   -0.52484E-03 11680   0.590E-01    0.156E-01
DAV:   3    -0.419541847756E+02    0.24987E-03   -0.93671E-04 11184   0.337E-01    0.376E-02
DAV:   4    -0.419541760685E+02    0.87071E-05   -0.30928E-05 11560   0.503E-02    0.188E-02
DAV:   5    -0.419541727812E+02    0.32873E-05   -0.72362E-06 11640   0.285E-02    0.253E-03
DAV:   6    -0.419541730317E+02   -0.25047E-06   -0.10062E-06 10648   0.803E-03    0.865E-04
DAV:   7    -0.419541730476E+02   -0.15900E-07   -0.40937E-08  9808   0.234E-03    0.588E-04
DAV:   8    -0.419541730876E+02   -0.39976E-07   -0.73058E-09  5560   0.898E-04    0.583E-05
DAV:   9    -0.419541730928E+02   -0.52260E-08   -0.14967E-09  5304   0.362E-04
  20 F= -.41954173E+02 E0= -.41953736E+02  d E =-.411511E-04  mag=    -0.0000
       N       E                     dE             d eps       ncg     rms          rms(c)
DAV:   1    -0.419542217661E+02   -0.48679E-04   -0.29023E-02 11312   0.511E+00    0.386E-01
DAV:   2    -0.419584056446E+02   -0.41839E-02   -0.34333E-02 11296   0.182E+00    0.623E-01
DAV:   3    -0.419542491877E+02    0.41565E-02   -0.12141E-02 11168   0.120E+00    0.860E-02
DAV:   4    -0.419542015325E+02    0.47655E-04   -0.31060E-04 11432   0.142E-01    0.383E-02
DAV:   5    -0.419541835654E+02    0.17967E-04   -0.32988E-05 11496   0.537E-02    0.654E-03
DAV:   6    -0.419541828386E+02    0.72677E-06   -0.46439E-06 11496   0.183E-02    0.414E-03
DAV:   7    -0.419541825660E+02    0.27263E-06   -0.31833E-07 12408   0.524E-03    0.866E-04
DAV:   8    -0.419541824536E+02    0.11244E-06   -0.25997E-08  8968   0.150E-03    0.121E-04
DAV:   9    -0.419541824403E+02    0.13279E-07   -0.26898E-09  5544   0.477E-04    0.923E-05
DAV:  10    -0.419541824358E+02    0.45002E-08   -0.70635E-10  5368   0.265E-04
  21 F= -.41954182E+02 E0= -.41953741E+02  d E =-.934297E-05  mag=     0.0000
       N       E                     dE             d eps       ncg     rms          rms(c)
DAV:   1    -0.419541917503E+02   -0.93101E-05   -0.34225E-03 11272   0.175E+00    0.132E-01
DAV:   2    -0.419546778717E+02   -0.48612E-03   -0.40650E-03 11320   0.625E-01    0.214E-01
DAV:   3    -0.419541919216E+02    0.48595E-03   -0.14331E-03 11168   0.410E-01    0.295E-02
DAV:   4    -0.419541870695E+02    0.48521E-05   -0.36837E-05 11432   0.488E-02    0.131E-02
DAV:   5    -0.419541858870E+02    0.11825E-05   -0.38250E-06 11504   0.184E-02    0.226E-03
DAV:   6    -0.419541860428E+02   -0.15580E-06   -0.54240E-07 11592   0.623E-03    0.141E-03
DAV:   7    -0.419541860944E+02   -0.51639E-07   -0.35215E-08  9232   0.179E-03    0.294E-04
DAV:   8    -0.419541861346E+02   -0.40172E-07   -0.40883E-09  5520   0.556E-04    0.452E-05
DAV:   9    -0.419541861399E+02   -0.53788E-08   -0.11718E-09  5264   0.297E-04
  22 F= -.41954186E+02 E0= -.41953746E+02  d E =-.130471E-04  mag=     0.0000
