 running on   24 total cores
 distrk:  each k-point on   24 cores,    1 groups
 distr:  one band on    6 cores,    4 groups
 using from now: INCAR     
 vasp.5.4.4.18Apr17-6-g9f103f2a35 (build Jan 03 2018 06:08:52) complex          
  
 POSCAR found :  2 types and       4 ions
 scaLAPACK will be used
 WARNING: for PREC=h ENMAX is automatically increase by 25 %
        this was not the case for versions prior to vasp.4.4
 WARNING: for PREC=h ENMAX is automatically increase by 25 %
        this was not the case for versions prior to vasp.4.4
 LDA part: xc-table for Pade appr. of Perdew
 POSCAR, INCAR and KPOINTS ok, starting setup
 FFT: planning ...
 WAVECAR not read
 entering main loop
       N       E                     dE             d eps       ncg     rms          rms(c)
DAV:   1     0.357489381351E+03    0.35749E+03   -0.22644E+04 13504   0.150E+03
DAV:   2    -0.960313009539E+01   -0.36709E+03   -0.35347E+03 11372   0.455E+02
DAV:   3    -0.230318077168E+02   -0.13429E+02   -0.13126E+02 12988   0.105E+02
DAV:   4    -0.232777657850E+02   -0.24596E+00   -0.24556E+00 12672   0.137E+01
DAV:   5    -0.232855273703E+02   -0.77616E-02   -0.77612E-02 12640   0.259E+00    0.204E+01
DAV:   6    -0.311277960324E+02   -0.78423E+01   -0.67563E+01 12728   0.125E+02    0.275E+01
DAV:   7    -0.203023934042E+02    0.10825E+02   -0.25743E+01 12976   0.805E+01    0.365E+00
DAV:   8    -0.202628917932E+02    0.39502E-01   -0.16349E+00 15236   0.121E+01    0.205E+00
DAV:   9    -0.202228404283E+02    0.40051E-01   -0.21299E-01 12928   0.598E+00    0.712E-01
DAV:  10    -0.202203550960E+02    0.24853E-02   -0.10405E-02 13656   0.134E+00    0.192E-01
DAV:  11    -0.202199882796E+02    0.36682E-03   -0.18114E-03 15736   0.480E-01    0.856E-02
DAV:  12    -0.202199593860E+02    0.28894E-04   -0.16714E-04 13124   0.136E-01    0.448E-02
DAV:  13    -0.202199360730E+02    0.23313E-04   -0.46770E-05 16628   0.747E-02    0.116E-02
DAV:  14    -0.202199359869E+02    0.86094E-07   -0.10859E-05 16616   0.353E-02    0.775E-03
DAV:  15    -0.202199350042E+02    0.98264E-06   -0.12149E-06 14736   0.123E-02    0.288E-03
DAV:  16    -0.202199347874E+02    0.21683E-06   -0.29349E-07 16132   0.620E-03    0.461E-04
DAV:  17    -0.202199347501E+02    0.37315E-07   -0.13689E-08  7952   0.109E-03    0.280E-04
DAV:  18    -0.202199347397E+02    0.10372E-07   -0.26126E-09  6336   0.647E-04    0.106E-04
DAV:  19    -0.202199347381E+02    0.16535E-08   -0.46093E-10  6244   0.200E-04
   1 F= -.20219935E+02 E0= -.20220009E+02  d E =-.202199E+02  mag=    -0.0000
 curvature:   0.00 expect dE= 0.000E+00 dE for cont linesearch  0.000E+00
 trial: gam= 0.00000 g(F)=  0.276E+00 g(S)=  0.221E+01 ort = 0.000E+00 (trialstep = 0.100E+01)
 search vector abs. value=  0.249E+01
 bond charge predicted
       N       E                     dE             d eps       ncg     rms          rms(c)
DAV:   1    -0.998821202204E+02   -0.79662E+02   -0.10442E+03 11556   0.542E+02    0.685E+01
DAV:   2    -0.489816778795E+02    0.50900E+02   -0.48503E+02 13820   0.236E+02    0.462E+01
DAV:   3    -0.328483420090E+02    0.16133E+02   -0.16469E+02 12064   0.162E+02    0.312E+01
DAV:   4    -0.214503886961E+02    0.11398E+02   -0.43928E+01 12684   0.937E+01    0.514E+00
DAV:   5    -0.213152768000E+02    0.13511E+00   -0.56429E+00 13140   0.307E+01    0.796E+00
DAV:   6    -0.206764646717E+02    0.63881E+00   -0.12854E+00 13688   0.140E+01    0.389E-01
DAV:   7    -0.206791113189E+02   -0.26466E-02   -0.54507E-02 12080   0.198E+00    0.626E-01
DAV:   8    -0.206748252563E+02    0.42861E-02   -0.70501E-03 14612   0.101E+00    0.166E-01
DAV:   9    -0.206746037554E+02    0.22150E-03   -0.11119E-03 13528   0.350E-01    0.265E-02
DAV:  10    -0.206746077542E+02   -0.39988E-05   -0.49086E-05 12968   0.701E-02    0.633E-03
DAV:  11    -0.206746083229E+02   -0.56870E-06   -0.46860E-06 12524   0.172E-02    0.245E-03
DAV:  12    -0.206746083527E+02   -0.29811E-07   -0.37942E-07 13216   0.813E-03    0.851E-04
DAV:  13    -0.206746083381E+02    0.14623E-07   -0.21195E-08  8680   0.161E-03    0.210E-04
DAV:  14    -0.206746083300E+02    0.81282E-08   -0.44239E-09  6560   0.697E-04
   2 F= -.20674608E+02 E0= -.20674471E+02  d E =-.454674E+00  mag=    -0.0000
 trial-energy change:   -0.454674  1 .order   -0.593070   -2.488654    1.302514
 step:   0.6040(harm=  0.6564)  dis= 0.04457  next Energy=   -20.941066 (dE=-0.721E+00)
 bond charge predicted
       N       E                     dE             d eps       ncg     rms          rms(c)
DAV:   1    -0.409284272888E+02   -0.20254E+02   -0.17700E+02 12248   0.192E+02    0.482E+01
DAV:   2    -0.695391936736E+02   -0.28611E+02   -0.35541E+02 11980   0.276E+02    0.460E+01
DAV:   3    -0.240260177344E+02    0.45513E+02   -0.11846E+02 13496   0.128E+02    0.130E+01
DAV:   4    -0.237446712798E+02    0.28135E+00   -0.11954E+00 12260   0.872E+00    0.122E+01
DAV:   5    -0.220509210536E+02    0.16938E+01   -0.85814E-01 13760   0.120E+01    0.762E+00
DAV:   6    -0.209607468565E+02    0.10902E+01   -0.34000E+00 14240   0.196E+01    0.264E+00
DAV:   7    -0.209344190158E+02    0.26328E-01   -0.20004E-01 12252   0.411E+00    0.150E+00
DAV:   8    -0.209178713809E+02    0.16548E-01   -0.19375E-02 14148   0.143E+00    0.643E-01
DAV:   9    -0.209152271710E+02    0.26442E-02   -0.54479E-03 14596   0.803E-01    0.200E-01
DAV:  10    -0.209148604522E+02    0.36672E-03   -0.62832E-04 12716   0.241E-01    0.994E-02
DAV:  11    -0.209148337503E+02    0.26702E-04   -0.10211E-04 12188   0.803E-02    0.405E-02
DAV:  12    -0.209148329724E+02    0.77789E-06   -0.93091E-05 13740   0.118E-01    0.259E-02
DAV:  13    -0.209148263941E+02    0.65783E-05   -0.87327E-06 15120   0.379E-02    0.905E-03
DAV:  14    -0.209148252656E+02    0.11285E-05   -0.37203E-06 15920   0.214E-02    0.316E-03
DAV:  15    -0.209148253280E+02   -0.62407E-07   -0.49538E-07 14260   0.877E-03    0.103E-03
DAV:  16    -0.209148252626E+02    0.65353E-07   -0.17112E-08  7908   0.165E-03    0.259E-04
DAV:  17    -0.209148252471E+02    0.15502E-07   -0.29736E-09  6272   0.409E-04    0.771E-05
DAV:  18    -0.209148252471E+02   -0.54570E-11   -0.52124E-10  6048   0.192E-04
   3 F= -.20914825E+02 E0= -.20914724E+02  d E =-.694891E+00  mag=    -0.0000
 curvature:  -0.32 expect dE=-0.657E-01 dE for cont linesearch -0.532E-05
 trial: gam= 0.08494 g(F)=  0.864E-01 g(S)=  0.119E+00 ort =-0.642E-02 (trialstep = 0.921E+00)
 search vector abs. value=  0.222E+00
 bond charge predicted
       N       E                     dE             d eps       ncg     rms          rms(c)
DAV:   1    -0.214669484980E+02   -0.55212E+00   -0.26469E+01 13456   0.165E+02    0.109E+01
DAV:   2    -0.237320882850E+02   -0.22651E+01   -0.23133E+01 12688   0.629E+01    0.143E+01
DAV:   3    -0.211579189593E+02    0.25742E+01   -0.77282E+00 12512   0.403E+01    0.260E+00
DAV:   4    -0.210695088652E+02    0.88410E-01   -0.26125E-01 12524   0.417E+00    0.674E-01
DAV:   5    -0.210661497394E+02    0.33591E-02   -0.26921E-02 12644   0.189E+00    0.159E-01
DAV:   6    -0.210660374799E+02    0.11226E-03   -0.22197E-03 13084   0.632E-01    0.106E-01
DAV:   7    -0.210659934149E+02    0.44065E-04   -0.66892E-04 13408   0.349E-01    0.574E-02
DAV:   8    -0.210659597584E+02    0.33657E-04   -0.74159E-05 13676   0.117E-01    0.120E-02
DAV:   9    -0.210659575614E+02    0.21970E-05   -0.60182E-06 16928   0.245E-02    0.194E-03
DAV:  10    -0.210659574196E+02    0.14182E-06   -0.18107E-07 12108   0.398E-03    0.754E-04
DAV:  11    -0.210659573500E+02    0.69571E-07   -0.23614E-08  8620   0.224E-03    0.187E-04
DAV:  12    -0.210659573438E+02    0.61627E-08   -0.46805E-09  6432   0.839E-04
   4 F= -.21065957E+02 E0= -.21065900E+02  d E =-.151132E+00  mag=     0.0000
 trial-energy change:   -0.151132  1 .order   -0.152177   -0.188224   -0.116131
 step:   2.9873(harm=  2.4041)  dis= 0.12839  next Energy=   -21.184455 (dE=-0.270E+00)
 bond charge predicted
       N       E                     dE             d eps       ncg     rms          rms(c)
DAV:   1    -0.237030347557E+02   -0.26371E+01   -0.14275E+02 13896   0.382E+02    0.255E+01
DAV:   2    -0.326615841842E+02   -0.89585E+01   -0.11042E+02 12320   0.146E+02    0.264E+01
DAV:   3    -0.215771206098E+02    0.11084E+02   -0.29704E+01 12320   0.860E+01    0.535E+00
DAV:   4    -0.212616801920E+02    0.31544E+00   -0.18466E+00 14928   0.127E+01    0.375E+00
DAV:   5    -0.211408993903E+02    0.12078E+00   -0.56606E-01 12472   0.101E+01    0.875E-01
DAV:   6    -0.211331866124E+02    0.77128E-02   -0.35166E-02 12928   0.261E+00    0.199E-01
DAV:   7    -0.211333599749E+02   -0.17336E-03   -0.20566E-03 13872   0.598E-01    0.387E-02
DAV:   8    -0.211333738307E+02   -0.13856E-04   -0.14556E-04 12536   0.133E-01    0.182E-02
DAV:   9    -0.211333721992E+02    0.16315E-05   -0.93854E-06 14480   0.341E-02    0.396E-03
DAV:  10    -0.211333718494E+02    0.34978E-06   -0.15054E-06 15156   0.168E-02    0.261E-03
DAV:  11    -0.211333716883E+02    0.16113E-06   -0.27203E-07 13704   0.718E-03    0.363E-04
DAV:  12    -0.211333716791E+02    0.92141E-08   -0.95303E-09  6864   0.937E-04
   5 F= -.21133372E+02 E0= -.21133452E+02  d E =-.218546E+00  mag=    -0.0000
 curvature:  -1.10 expect dE=-0.460E+00 dE for cont linesearch -0.130E-01
 ZBRENT: interpolating
 opt :   2.3918  next Energy=   -21.148576 (dE=-0.234E+00)
 bond charge predicted
       N       E                     dE             d eps       ncg     rms          rms(c)
DAV:   1    -0.214117011200E+02   -0.27833E+00   -0.12915E+01 14048   0.102E+02    0.725E+00
DAV:   2    -0.222215082589E+02   -0.80981E+00   -0.10326E+01 12384   0.435E+01    0.972E+00
DAV:   3    -0.212155036496E+02    0.10060E+01   -0.30630E+00 12208   0.256E+01    0.225E+00
DAV:   4    -0.211545517987E+02    0.60952E-01   -0.18965E-01 12816   0.549E+00    0.397E-01
DAV:   5    -0.211531635536E+02    0.13882E-02   -0.14142E-02 12632   0.140E+00    0.112E-01
DAV:   6    -0.211531006914E+02    0.62862E-04   -0.80231E-04 15032   0.362E-01    0.613E-02
DAV:   7    -0.211531013968E+02   -0.70536E-06   -0.10537E-04 13936   0.110E-01    0.102E-02
DAV:   8    -0.211531025638E+02   -0.11670E-05   -0.52604E-06 12960   0.274E-02    0.228E-03
DAV:   9    -0.211531025936E+02   -0.29824E-07   -0.36852E-07 14040   0.700E-03    0.145E-03
DAV:  10    -0.211531026285E+02   -0.34855E-07   -0.54782E-08 11888   0.328E-03    0.172E-04
DAV:  11    -0.211531026422E+02   -0.13672E-07   -0.46834E-09  6420   0.789E-04    0.585E-05
DAV:  12    -0.211531026422E+02   -0.63665E-11   -0.98167E-10  6080   0.431E-04
   6 F= -.21153103E+02 E0= -.21152953E+02  d E =-.238277E+00  mag=     0.0000
 curvature:  -1.29 expect dE=-0.267E+00 dE for cont linesearch -0.371E-04
 trial: gam= 1.12124 g(F)=  0.438E-01 g(S)=  0.163E+00 ort = 0.252E-02 (trialstep = 0.549E+00)
 search vector abs. value=  0.491E+00
 bond charge predicted
       N       E                     dE             d eps       ncg     rms          rms(c)
DAV:   1    -0.204638628576E+02    0.68924E+00   -0.31035E+01 13808   0.213E+02    0.581E+00
DAV:   2    -0.216673534734E+02   -0.12035E+01   -0.14699E+01 12184   0.404E+01    0.602E+00
DAV:   3    -0.213457802002E+02    0.32157E+00   -0.15332E+00 12364   0.175E+01    0.269E+00
DAV:   4    -0.212603378509E+02    0.85442E-01   -0.27040E-01 13216   0.734E+00    0.794E-01
DAV:   5    -0.212532266319E+02    0.71112E-02   -0.29882E-02 13004   0.222E+00    0.162E-01
DAV:   6    -0.212531274568E+02    0.99175E-04   -0.24180E-03 13684   0.483E-01    0.710E-02
DAV:   7    -0.212531253475E+02    0.21093E-05   -0.16835E-04 13924   0.187E-01    0.292E-02
DAV:   8    -0.212531311935E+02   -0.58460E-05   -0.21790E-05 14016   0.468E-02    0.401E-03
DAV:   9    -0.212531309490E+02    0.24451E-06   -0.14211E-06 15124   0.198E-02    0.184E-03
DAV:  10    -0.212531309584E+02   -0.94260E-08   -0.15323E-07 12340   0.345E-03    0.450E-04
DAV:  11    -0.212531309671E+02   -0.86820E-08   -0.58545E-09  6652   0.746E-04
   7 F= -.21253131E+02 E0= -.21253199E+02  d E =-.100028E+00  mag=     0.0000
 trial-energy change:   -0.100028  1 .order   -0.098495   -0.114899   -0.082091
 step:   1.3593(harm=  1.9222)  dis= 0.07002  next Energy=   -21.318673 (dE=-0.166E+00)
 bond charge predicted
       N       E                     dE             d eps       ncg     rms          rms(c)
DAV:   1    -0.197746500525E+02    0.14785E+01   -0.71302E+01 14344   0.310E+02    0.814E+00
DAV:   2    -0.220481295464E+02   -0.22735E+01   -0.28982E+01 12176   0.559E+01    0.780E+00
DAV:   3    -0.215267711629E+02    0.52136E+00   -0.27092E+00 12232   0.228E+01    0.403E+00
DAV:   4    -0.213326690384E+02    0.19410E+00   -0.62895E-01 13448   0.111E+01    0.131E+00
DAV:   5    -0.213138176451E+02    0.18851E-01   -0.74660E-02 12872   0.354E+00    0.216E-01
DAV:   6    -0.213136042969E+02    0.21335E-03   -0.57281E-03 13736   0.740E-01    0.104E-01
DAV:   7    -0.213136023451E+02    0.19518E-05   -0.34405E-04 14088   0.255E-01    0.418E-02
DAV:   8    -0.213136134382E+02   -0.11093E-04   -0.44461E-05 14048   0.651E-02    0.570E-03
DAV:   9    -0.213136128773E+02    0.56085E-06   -0.24084E-06 15040   0.229E-02    0.211E-03
DAV:  10    -0.213136129071E+02   -0.29822E-07   -0.25095E-07 12400   0.454E-03    0.367E-04
DAV:  11    -0.213136129329E+02   -0.25785E-07   -0.10533E-08  7944   0.129E-03    0.149E-04
DAV:  12    -0.213136129359E+02   -0.29922E-08   -0.25635E-09  6284   0.826E-04
   8 F= -.21313613E+02 E0= -.21313696E+02  d E =-.160510E+00  mag=    -0.0000
 curvature:  -1.88 expect dE=-0.138E+00 dE for cont linesearch -0.579E-03
 trial: gam= 0.26170 g(F)=  0.138E-01 g(S)=  0.597E-01 ort =-0.123E-01 (trialstep = 0.711E+00)
 search vector abs. value=  0.101E+00
 bond charge predicted
       N       E                     dE             d eps       ncg     rms          rms(c)
DAV:   1    -0.214169081926E+02   -0.10330E+00   -0.15878E+01 14080   0.150E+02    0.823E+00
DAV:   2    -0.228032815794E+02   -0.13864E+01   -0.13669E+01 12272   0.496E+01    0.106E+01
DAV:   3    -0.213790459821E+02    0.14242E+01   -0.43279E+00 12152   0.311E+01    0.169E+00
DAV:   4    -0.213470493656E+02    0.31997E-01   -0.11554E-01 12032   0.313E+00    0.573E-01
DAV:   5    -0.213437411827E+02    0.33082E-02   -0.12808E-02 14360   0.111E+00    0.113E-01
DAV:   6    -0.213437179231E+02    0.23260E-04   -0.15504E-03 12432   0.518E-01    0.988E-02
DAV:   7    -0.213436442194E+02    0.73704E-04   -0.31542E-04 13200   0.253E-01    0.182E-02
DAV:   8    -0.213436400743E+02    0.41452E-05   -0.18483E-05 14256   0.543E-02    0.403E-03
DAV:   9    -0.213436396863E+02    0.38791E-06   -0.10167E-06 14264   0.120E-02    0.129E-03
DAV:  10    -0.213436396092E+02    0.77101E-07   -0.65785E-08 13096   0.358E-03    0.200E-04
DAV:  11    -0.213436396045E+02    0.47021E-08   -0.34221E-09  6448   0.821E-04
   9 F= -.21343640E+02 E0= -.21343512E+02  d E =-.300267E-01  mag=    -0.0000
 trial-energy change:   -0.030027  1 .order   -0.029857   -0.049938   -0.009776
 step:   0.8788(harm=  0.8840)  dis= 0.02226  next Energy=   -21.344796 (dE=-0.312E-01)
 bond charge predicted
       N       E                     dE             d eps       ncg     rms          rms(c)
DAV:   1    -0.213456547594E+02   -0.20152E-02   -0.88317E-01 13000   0.358E+01    0.194E+00
DAV:   2    -0.214276012773E+02   -0.81947E-01   -0.82871E-01 12224   0.121E+01    0.262E+00
DAV:   3    -0.213472068489E+02    0.80394E-01   -0.25112E-01 12152   0.736E+00    0.459E-01
DAV:   4    -0.213450372889E+02    0.21696E-02   -0.65741E-03 12456   0.981E-01    0.128E-01
DAV:   5    -0.213448352049E+02    0.20208E-03   -0.66667E-04 14160   0.226E-01    0.273E-02
DAV:   6    -0.213448314488E+02    0.37561E-05   -0.68898E-05 12264   0.108E-01    0.178E-02
DAV:   7    -0.213448290012E+02    0.24476E-05   -0.66732E-06 14660   0.340E-02    0.239E-03
DAV:   8    -0.213448287468E+02    0.25437E-06   -0.34635E-07 12264   0.565E-03    0.707E-04
DAV:   9    -0.213448286946E+02    0.52182E-07   -0.18469E-08  8968   0.134E-03    0.129E-04
DAV:  10    -0.213448286816E+02    0.13059E-07   -0.30896E-09  6080   0.831E-04    0.777E-05
DAV:  11    -0.213448286807E+02    0.82218E-09   -0.59946E-10  5996   0.258E-04
  10 F= -.21344829E+02 E0= -.21344632E+02  d E =-.312157E-01  mag=    -0.0000
 curvature:  -0.63 expect dE=-0.845E-02 dE for cont linesearch -0.217E-05
 trial: gam= 0.11957 g(F)=  0.426E-02 g(S)=  0.908E-02 ort = 0.588E-03 (trialstep = 0.745E+00)
 search vector abs. value=  0.149E-01
 bond charge predicted
       N       E                     dE             d eps       ncg     rms          rms(c)
DAV:   1    -0.213459437405E+02   -0.11151E-02   -0.23502E+00 12888   0.566E+01    0.290E+00
DAV:   2    -0.215346907720E+02   -0.18875E+00   -0.20121E+00 12176   0.181E+01    0.400E+00
DAV:   3    -0.213587280905E+02    0.17596E+00   -0.54851E-01 12112   0.108E+01    0.784E-01
DAV:   4    -0.213522883741E+02    0.64397E-02   -0.19468E-02 12832   0.183E+00    0.172E-01
DAV:   5    -0.213518712752E+02    0.41710E-03   -0.15294E-03 13116   0.377E-01    0.439E-02
DAV:   6    -0.213518651626E+02    0.61126E-05   -0.17504E-04 12364   0.173E-01    0.272E-02
DAV:   7    -0.213518618032E+02    0.33594E-05   -0.24926E-05 13536   0.650E-02    0.598E-03
DAV:   8    -0.213518624568E+02   -0.65358E-06   -0.13540E-06 12284   0.159E-02    0.141E-03
DAV:   9    -0.213518625114E+02   -0.54578E-07   -0.90034E-08 14448   0.356E-03    0.389E-04
DAV:  10    -0.213518625358E+02   -0.24430E-07   -0.33979E-09  6260   0.675E-04    0.152E-04
DAV:  11    -0.213518625426E+02   -0.68294E-08   -0.11959E-09  6080   0.390E-04
  11 F= -.21351863E+02 E0= -.21351697E+02  d E =-.703386E-02  mag=    -0.0000
 trial-energy change:   -0.007034  1 .order   -0.007063   -0.009990   -0.004137
 step:   1.2997(harm=  1.2707)  dis= 0.00936  next Energy=   -21.353393 (dE=-0.856E-02)
 bond charge predicted
       N       E                     dE             d eps       ncg     rms          rms(c)
DAV:   1    -0.213503162357E+02    0.15463E-02   -0.13018E+00 13016   0.422E+01    0.216E+00
DAV:   2    -0.214571050329E+02   -0.10679E+00   -0.11161E+00 12160   0.135E+01    0.303E+00
DAV:   3    -0.213571710878E+02    0.99934E-01   -0.31328E-01 12144   0.811E+00    0.584E-01
DAV:   4    -0.213535946668E+02    0.35764E-02   -0.10770E-02 12720   0.135E+00    0.127E-01
DAV:   5    -0.213533674885E+02    0.22718E-03   -0.85816E-04 13112   0.278E-01    0.321E-02
DAV:   6    -0.213533646382E+02    0.28504E-05   -0.10050E-04 12328   0.131E-01    0.206E-02
DAV:   7    -0.213533627523E+02    0.18859E-05   -0.14606E-05 13408   0.499E-02    0.454E-03
DAV:   8    -0.213533632061E+02   -0.45382E-06   -0.78982E-07 12352   0.121E-02    0.102E-03
DAV:   9    -0.213533632502E+02   -0.44092E-07   -0.48461E-08 12720   0.260E-03    0.316E-04
DAV:  10    -0.213533632704E+02   -0.20169E-07   -0.23329E-09  6172   0.547E-04    0.108E-04
DAV:  11    -0.213533632753E+02   -0.49749E-08   -0.76158E-10  6008   0.290E-04
  12 F= -.21353363E+02 E0= -.21353255E+02  d E =-.853459E-02  mag=    -0.0000
 curvature:  -0.70 expect dE=-0.366E-02 dE for cont linesearch -0.180E-05
 trial: gam= 0.42120 g(F)=  0.691E-03 g(S)=  0.451E-02 ort =-0.195E-03 (trialstep = 0.856E+00)
 search vector abs. value=  0.768E-02
 bond charge predicted
       N       E                     dE             d eps       ncg     rms          rms(c)
DAV:   1    -0.213837970447E+02   -0.30434E-01   -0.11416E+00 14168   0.304E+01    0.233E+00
DAV:   2    -0.214652399612E+02   -0.81443E-01   -0.89899E-01 12256   0.133E+01    0.302E+00
DAV:   3    -0.213603869639E+02    0.10485E+00   -0.32397E-01 12152   0.826E+00    0.601E-01
DAV:   4    -0.213559123113E+02    0.44747E-02   -0.11859E-02 12640   0.120E+00    0.834E-02
DAV:   5    -0.213559103634E+02    0.19478E-05   -0.91411E-04 12296   0.321E-01    0.357E-02
DAV:   6    -0.213559069668E+02    0.33967E-05   -0.45522E-05 13464   0.873E-02    0.160E-02
DAV:   7    -0.213559068441E+02    0.12267E-06   -0.66958E-06 14768   0.310E-02    0.374E-03
DAV:   8    -0.213559064625E+02    0.38156E-06   -0.61504E-07 14048   0.101E-02    0.629E-04
DAV:   9    -0.213559064246E+02    0.37927E-07   -0.32973E-08 11672   0.227E-03    0.336E-04
DAV:  10    -0.213559063977E+02    0.26887E-07   -0.41601E-09  6232   0.994E-04    0.534E-05
DAV:  11    -0.213559063967E+02    0.10568E-08   -0.81915E-10  6000   0.315E-04
  13 F= -.21355906E+02 E0= -.21355811E+02  d E =-.254312E-02  mag=    -0.0000
 trial-energy change:   -0.002543  1 .order   -0.002557   -0.004378   -0.000736
 step:   1.0332(harm=  1.0284)  dis= 0.00351  next Energy=   -21.355983 (dE=-0.262E-02)
 bond charge predicted
       N       E                     dE             d eps       ncg     rms          rms(c)
DAV:   1    -0.213571599547E+02   -0.12536E-02   -0.49720E-02 14192   0.632E+00    0.473E-01
DAV:   2    -0.213605728886E+02   -0.34129E-02   -0.38887E-02 12264   0.276E+00    0.629E-01
DAV:   3    -0.213562023001E+02    0.43706E-02   -0.13573E-02 12184   0.168E+00    0.131E-01
DAV:   4    -0.213559835255E+02    0.21877E-03   -0.57799E-04 13360   0.292E-01    0.130E-02
DAV:   5    -0.213559842229E+02   -0.69744E-06   -0.42342E-05 12176   0.758E-02    0.760E-03
DAV:   6    -0.213559837938E+02    0.42912E-06   -0.20240E-06 14904   0.185E-02    0.331E-03
DAV:   7    -0.213559836859E+02    0.10793E-06   -0.29491E-07 14080   0.626E-03    0.776E-04
DAV:   8    -0.213559836353E+02    0.50622E-07   -0.21470E-08  7472   0.190E-03    0.126E-04
DAV:   9    -0.213559836244E+02    0.10856E-07   -0.42375E-09  6056   0.785E-04    0.832E-05
DAV:  10    -0.213559836223E+02    0.21600E-08   -0.83148E-10  5920   0.346E-04
  14 F= -.21355984E+02 E0= -.21355868E+02  d E =-.262035E-02  mag=     0.0000
 curvature:  -0.77 expect dE=-0.127E-02 dE for cont linesearch -0.197E-07
 trial: gam= 0.27936 g(F)=  0.983E-03 g(S)=  0.667E-03 ort = 0.140E-04 (trialstep = 0.891E+00)
 search vector abs. value=  0.226E-02
 bond charge predicted
       N       E                     dE             d eps       ncg     rms          rms(c)
DAV:   1    -0.213746544454E+02   -0.18671E-01   -0.21751E-01 12432   0.553E+00    0.133E+00
DAV:   2    -0.214007065275E+02   -0.26052E-01   -0.27890E-01 12288   0.737E+00    0.198E+00
DAV:   3    -0.213577605996E+02    0.42946E-01   -0.12048E-01 12232   0.495E+00    0.264E-01
DAV:   4    -0.213569727438E+02    0.78786E-03   -0.32456E-03 12072   0.560E-01    0.519E-02
DAV:   5    -0.213569630672E+02    0.96766E-05   -0.22197E-04 12496   0.194E-01    0.163E-02
DAV:   6    -0.213569609799E+02    0.20873E-05   -0.98106E-06 14296   0.378E-02    0.680E-03
DAV:   7    -0.213569611997E+02   -0.21975E-06   -0.10498E-06 14672   0.108E-02    0.144E-03
DAV:   8    -0.213569613156E+02   -0.11598E-06   -0.89937E-08 12456   0.353E-03    0.263E-04
DAV:   9    -0.213569613532E+02   -0.37557E-07   -0.56939E-09  6232   0.114E-03    0.112E-04
DAV:  10    -0.213569613621E+02   -0.89476E-08   -0.98676E-10  6128   0.357E-04
  15 F= -.21356961E+02 E0= -.21356799E+02  d E =-.977740E-03  mag=    -0.0000
 trial-energy change:   -0.000978  1 .order   -0.000981   -0.001474   -0.000487
 step:   1.3434(harm=  1.3313)  dis= 0.00639  next Energy=   -21.357085 (dE=-0.110E-02)
 bond charge predicted
       N       E                     dE             d eps       ncg     rms          rms(c)
DAV:   1    -0.213616442379E+02   -0.46829E-02   -0.55787E-02 12424   0.280E+00    0.678E-01
DAV:   2    -0.213685338353E+02   -0.68896E-02   -0.72370E-02 12296   0.376E+00    0.101E+00
DAV:   3    -0.213572826217E+02    0.11251E-01   -0.31583E-02 12240   0.253E+00    0.132E-01
DAV:   4    -0.213570862807E+02    0.19634E-03   -0.83658E-04 12104   0.277E-01    0.293E-02
DAV:   5    -0.213570821111E+02    0.41696E-05   -0.61024E-05 12416   0.105E-01    0.798E-03
DAV:   6    -0.213570818086E+02    0.30249E-06   -0.26183E-06 13112   0.191E-02    0.316E-03
DAV:   7    -0.213570819513E+02   -0.14267E-06   -0.23213E-07 15144   0.489E-03    0.692E-04
DAV:   8    -0.213570820088E+02   -0.57487E-07   -0.18219E-08  8696   0.167E-03    0.138E-04
DAV:   9    -0.213570820302E+02   -0.21401E-07   -0.34580E-09  6124   0.715E-04    0.669E-05
DAV:  10    -0.213570820314E+02   -0.12542E-08   -0.61434E-10  6028   0.281E-04
  16 F= -.21357082E+02 E0= -.21356895E+02  d E =-.109841E-02  mag=     0.0000
 curvature:  -0.91 expect dE=-0.266E-03 dE for cont linesearch -0.252E-07
 trial: gam= 0.20195 g(F)=  0.141E-03 g(S)=  0.153E-03 ort =-0.791E-05 (trialstep = 0.982E+00)
 search vector abs. value=  0.382E-03
 bond charge predicted
       N       E                     dE             d eps       ncg     rms          rms(c)
DAV:   1    -0.213585677562E+02   -0.14857E-02   -0.42762E-02 12368   0.727E+00    0.536E-01
DAV:   2    -0.213644447997E+02   -0.58770E-02   -0.55938E-02 12256   0.321E+00    0.792E-01
DAV:   3    -0.213573447048E+02    0.71001E-02   -0.21327E-02 12176   0.211E+00    0.991E-02
DAV:   4    -0.213572780331E+02    0.66672E-04   -0.40591E-04 12048   0.212E-01    0.384E-02
DAV:   5    -0.213572607611E+02    0.17272E-04   -0.30894E-05 13500   0.630E-02    0.626E-03
DAV:   6    -0.213572601303E+02    0.63077E-06   -0.38592E-06 12512   0.237E-02    0.391E-03
DAV:   7    -0.213572599566E+02    0.17365E-06   -0.45545E-07 13976   0.939E-03    0.857E-04
DAV:   8    -0.213572598575E+02    0.99084E-07   -0.26273E-08 11412   0.195E-03    0.168E-04
DAV:   9    -0.213572598472E+02    0.10306E-07   -0.16640E-09  6212   0.522E-04    0.728E-05
DAV:  10    -0.213572598413E+02    0.59326E-08   -0.38707E-10  5964   0.188E-04
  17 F= -.21357260E+02 E0= -.21357070E+02  d E =-.177810E-03  mag=    -0.0000
 trial-energy change:   -0.000178  1 .order   -0.000177   -0.000286   -0.000069
 step:   1.2912(harm=  1.2912)  dis= 0.00297  next Energy=   -21.357270 (dE=-0.188E-03)
 bond charge predicted
       N       E                     dE             d eps       ncg     rms          rms(c)
DAV:   1    -0.213573998907E+02   -0.14004E-03   -0.42618E-03 12372   0.229E+00    0.169E-01
DAV:   2    -0.213579858426E+02   -0.58595E-03   -0.55748E-03 12268   0.101E+00    0.250E-01
DAV:   3    -0.213572800414E+02    0.70580E-03   -0.21165E-03 12176   0.665E-01    0.316E-02
DAV:   4    -0.213572728446E+02    0.71968E-05   -0.40709E-05 12040   0.681E-02    0.120E-02
DAV:   5    -0.213572708284E+02    0.20162E-05   -0.30158E-06 13476   0.196E-02    0.197E-03
DAV:   6    -0.213572706739E+02    0.15441E-06   -0.37488E-07 12500   0.736E-03    0.122E-03
DAV:   7    -0.213572706391E+02    0.34820E-07   -0.42680E-08 11468   0.288E-03    0.267E-04
DAV:   8    -0.213572706088E+02    0.30317E-07   -0.26116E-09  6032   0.626E-04    0.499E-05
DAV:   9    -0.213572706046E+02    0.41882E-08   -0.48824E-10  5848   0.248E-04
  18 F= -.21357271E+02 E0= -.21357080E+02  d E =-.188573E-03  mag=    -0.0000
 curvature:  -0.85 expect dE=-0.139E-03 dE for cont linesearch -0.315E-08
 trial: gam= 0.56419 g(F)=  0.716E-04 g(S)=  0.930E-04 ort =-0.119E-05 (trialstep = 0.104E+01)
 search vector abs. value=  0.285E-03
 bond charge predicted
       N       E                     dE             d eps       ncg     rms          rms(c)
DAV:   1    -0.213555665700E+02    0.17040E-02   -0.71507E-02 13008   0.114E+01    0.416E-01
DAV:   2    -0.213610620933E+02   -0.54955E-02   -0.55358E-02 12272   0.275E+00    0.566E-01
DAV:   3    -0.213574986579E+02    0.35634E-02   -0.12151E-02 12152   0.160E+00    0.116E-01
DAV:   4    -0.213573908582E+02    0.10780E-03   -0.32231E-04 12712   0.224E-01    0.500E-02
DAV:   5    -0.213573607489E+02    0.30109E-04   -0.61622E-05 14352   0.970E-02    0.712E-03
DAV:   6    -0.213573609239E+02   -0.17502E-06   -0.75346E-06 12376   0.319E-02    0.431E-03
DAV:   7    -0.213573609385E+02   -0.14616E-07   -0.35592E-07 14888   0.744E-03    0.121E-03
DAV:   8    -0.213573610208E+02   -0.82325E-07   -0.33881E-08 11848   0.153E-03    0.178E-04
DAV:   9    -0.213573610296E+02   -0.87166E-08   -0.16701E-09  6128   0.472E-04
  19 F= -.21357361E+02 E0= -.21357174E+02  d E =-.904249E-04  mag=    -0.0000
 trial-energy change:   -0.000090  1 .order   -0.000105   -0.000171   -0.000038
 step:   1.3410(harm=  1.3410)  dis= 0.00223  next Energy=   -21.357381 (dE=-0.110E-03)
 bond charge predicted
       N       E                     dE             d eps       ncg     rms          rms(c)
DAV:   1    -0.213572201906E+02    0.14083E-03   -0.57935E-03 12944   0.325E+00    0.119E-01
DAV:   2    -0.213576664328E+02   -0.44624E-03   -0.45031E-03 12288   0.789E-01    0.162E-01
DAV:   3    -0.213573769073E+02    0.28953E-03   -0.99172E-04 12168   0.456E-01    0.331E-02
DAV:   4    -0.213573685040E+02    0.84033E-05   -0.25960E-05 12712   0.633E-02    0.143E-02
DAV:   5    -0.213573663972E+02    0.21068E-05   -0.50592E-06 14296   0.278E-02    0.203E-03
DAV:   6    -0.213573664840E+02   -0.86860E-07   -0.61641E-07 12328   0.909E-03    0.122E-03
DAV:   7    -0.213573665022E+02   -0.18180E-07   -0.26482E-08  9380   0.211E-03    0.340E-04
DAV:   8    -0.213573665262E+02   -0.23957E-07   -0.42707E-09  6068   0.516E-04    0.421E-05
DAV:   9    -0.213573665294E+02   -0.32787E-08   -0.64802E-10  5888   0.266E-04
  20 F= -.21357367E+02 E0= -.21357181E+02  d E =-.959248E-04  mag=    -0.0000
 curvature:  -1.17 expect dE=-0.888E-04 dE for cont linesearch -0.666E-09
 trial: gam= 0.45958 g(F)=  0.452E-04 g(S)=  0.310E-04 ort = 0.404E-06 (trialstep = 0.110E+01)
 search vector abs. value=  0.137E-03
 bond charge predicted
       N       E                     dE             d eps       ncg     rms          rms(c)
DAV:   1    -0.213553360985E+02    0.20304E-02   -0.65187E-02 17064   0.111E+01    0.203E-01
DAV:   2    -0.213582811512E+02   -0.29451E-02   -0.29069E-02 12096   0.177E+00    0.281E-01
DAV:   3    -0.213574489573E+02    0.83219E-03   -0.34494E-03 12080   0.867E-01    0.533E-02
DAV:   4    -0.213574379011E+02    0.11056E-04   -0.76863E-05 12752   0.949E-02    0.356E-02
DAV:   5    -0.213574244575E+02    0.13444E-04   -0.18955E-05 13840   0.908E-02    0.675E-03
DAV:   6    -0.213574237874E+02    0.67012E-06   -0.36521E-06 14128   0.210E-02    0.254E-03
DAV:   7    -0.213574237948E+02   -0.73915E-08   -0.69843E-07 13264   0.180E-02    0.128E-03
DAV:   8    -0.213574237369E+02    0.57837E-07   -0.44630E-08 12072   0.343E-03    0.121E-04
DAV:   9    -0.213574237331E+02    0.38608E-08   -0.19574E-09  5944   0.465E-04
  21 F= -.21357424E+02 E0= -.21357236E+02  d E =-.572036E-04  mag=    -0.0000
 trial-energy change:   -0.000057  1 .order   -0.000056   -0.000084   -0.000028
 step:   1.5929(harm=  1.6624)  dis= 0.00232  next Energy=   -21.357430 (dE=-0.636E-04)
 bond charge predicted
       N       E                     dE             d eps       ncg     rms          rms(c)
DAV:   1    -0.213570297886E+02    0.39395E-03   -0.12841E-02 16880   0.493E+00    0.896E-02
DAV:   2    -0.213576118375E+02   -0.58205E-03   -0.57374E-03 12104   0.782E-01    0.124E-01
DAV:   3    -0.213574508224E+02    0.16102E-03   -0.67391E-04 12088   0.383E-01    0.241E-02
DAV:   4    -0.213574484243E+02    0.23981E-05   -0.15088E-05 12768   0.424E-02    0.161E-02
DAV:   5    -0.213574454702E+02    0.29541E-05   -0.38674E-06 13856   0.407E-02    0.305E-03
DAV:   6    -0.213574452127E+02    0.25753E-06   -0.73524E-07 14088   0.942E-03    0.114E-03
DAV:   7    -0.213574452332E+02   -0.20499E-07   -0.14215E-07 13264   0.804E-03    0.585E-04
DAV:   8    -0.213574452088E+02    0.24359E-07   -0.82542E-09  5960   0.156E-03    0.696E-05
DAV:   9    -0.213574452080E+02    0.76579E-09   -0.11686E-09  5800   0.426E-04
  22 F= -.21357445E+02 E0= -.21357257E+02  d E =-.786786E-04  mag=    -0.0000
 curvature:  -1.47 expect dE=-0.272E-04 dE for cont linesearch -0.141E-06
 trial: gam= 0.20007 g(F)=  0.122E-05 g(S)=  0.173E-04 ort = 0.363E-05 (trialstep = 0.120E+01)
 search vector abs. value=  0.255E-04
 bond charge predicted
       N       E                     dE             d eps       ncg     rms          rms(c)
DAV:   1    -0.213576799510E+02   -0.23474E-03   -0.79152E-03 12880   0.281E+00    0.217E-01
DAV:   2    -0.213585647516E+02   -0.88480E-03   -0.90668E-03 12224   0.131E+00    0.312E-01
DAV:   3    -0.213574843166E+02    0.10804E-02   -0.32618E-03 12176   0.824E-01    0.509E-02
DAV:   4    -0.213574566987E+02    0.27618E-04   -0.10084E-04 12312   0.118E-01    0.606E-03
DAV:   5    -0.213574567652E+02   -0.66482E-07   -0.55862E-06 12536   0.247E-02    0.339E-03
DAV:   6    -0.213574568209E+02   -0.55770E-07   -0.38627E-07 13904   0.862E-03    0.144E-03
DAV:   7    -0.213574568728E+02   -0.51921E-07   -0.64921E-08 12400   0.293E-03    0.300E-04
DAV:   8    -0.213574568995E+02   -0.26612E-07   -0.32978E-09  6096   0.737E-04    0.538E-05
DAV:   9    -0.213574569038E+02   -0.43319E-08   -0.80093E-10  5920   0.341E-04
  23 F= -.21357457E+02 E0= -.21357266E+02  d E =-.116958E-04  mag=    -0.0000
 trial-energy change:   -0.000012  1 .order   -0.000012   -0.000023    0.000000
 step:   1.1993(harm=  1.1992)  dis= 0.00039  next Energy=   -21.357457 (dE=-0.117E-04)
 bond charge predicted
       N       E                     dE             d eps       ncg     rms          rms(c)
DAV:   1    -0.213574569029E+02   -0.33906E-08   -0.13136E-08  5864   0.393E-03    0.323E-04
DAV:   2    -0.213574569144E+02   -0.11574E-07   -0.20498E-08  6128   0.207E-03    0.474E-04
DAV:   3    -0.213574569075E+02    0.69067E-08   -0.85735E-09  5744   0.145E-03
  24 F= -.21357457E+02 E0= -.21357266E+02  d E =-.116995E-04  mag=    -0.0000
 curvature:  -0.79 expect dE=-0.584E-05 dE for cont linesearch -0.119E-08
 trial: gam= 0.44451 g(F)=  0.110E-05 g(S)=  0.628E-05 ort = 0.196E-06 (trialstep = 0.120E+01)
 search vector abs. value=  0.126E-04
 bond charge predicted
       N       E                     dE             d eps       ncg     rms          rms(c)
DAV:   1    -0.213575718572E+02   -0.11494E-03   -0.30934E-03 13320   0.140E+00    0.127E-01
DAV:   2    -0.213578110421E+02   -0.23918E-03   -0.26846E-03 12312   0.733E-01    0.175E-01
DAV:   3    -0.213574752764E+02    0.33577E-03   -0.10133E-03 12176   0.458E-01    0.334E-02
DAV:   4    -0.213574608530E+02    0.14423E-04   -0.38400E-05 12608   0.728E-02    0.346E-03
DAV:   5    -0.213574608456E+02    0.74115E-08   -0.26825E-06 12192   0.199E-02    0.210E-03
DAV:   6    -0.213574607464E+02    0.99186E-07   -0.15939E-07 15008   0.461E-03    0.764E-04
DAV:   7    -0.213574607205E+02    0.25918E-07   -0.13984E-08  6488   0.154E-03    0.177E-04
DAV:   8    -0.213574607072E+02    0.13357E-07   -0.32485E-09  5960   0.724E-04    0.434E-05
DAV:   9    -0.213574607052E+02    0.19882E-08   -0.66284E-10  5880   0.264E-04
  25 F= -.21357461E+02 E0= -.21357269E+02  d E =-.379766E-05  mag=    -0.0000
 trial-energy change:   -0.000004  1 .order   -0.000004   -0.000009    0.000002
 step:   1.0253(harm=  1.0129)  dis= 0.00017  next Energy=   -21.357461 (dE=-0.392E-05)
 bond charge predicted
       N       E                     dE             d eps       ncg     rms          rms(c)
DAV:   1    -0.213574632768E+02   -0.25696E-05   -0.66109E-05 13376   0.204E-01    0.186E-02
DAV:   2    -0.213574678805E+02   -0.46037E-05   -0.57109E-05 12312   0.107E-01    0.255E-02
DAV:   3    -0.213574610359E+02    0.68446E-05   -0.21568E-05 12160   0.668E-02    0.489E-03
DAV:   4    -0.213574607746E+02    0.26135E-06   -0.82335E-07 12624   0.106E-02    0.500E-04
DAV:   5    -0.213574607839E+02   -0.92832E-08   -0.56268E-08 11888   0.288E-03
  26 F= -.21357461E+02 E0= -.21357269E+02  d E =-.387634E-05  mag=    -0.0000
 curvature:  -0.85 expect dE=-0.206E-05 dE for cont linesearch -0.350E-08
 trial: gam= 0.35062 g(F)=  0.438E-06 g(S)=  0.198E-05 ort =-0.228E-06 (trialstep = 0.117E+01)
 search vector abs. value=  0.381E-05
 reached required accuracy - stopping structural energy minimisation
 writing wavefunctions
