   8   8   0   0
  0.1173492E+02  0.3714628E-09  0.3374023E-09  0.7490429E-09  0.5000000E-15
  1.000000000000000E-004
  CAR 
 unknown system                          
     25.02341952    -58.60839898  301      8.87880175      1.00000000
    -58.608  0.0000E+00  0.0000E+00  0.0000E+00  0.0000E+00
    -58.330  0.0000E+00  0.0000E+00  0.0000E+00  0.0000E+00
    -58.051  0.0000E+00  0.0000E+00  0.0000E+00  0.0000E+00
    -57.772  0.0000E+00  0.0000E+00  0.0000E+00  0.0000E+00
    -57.493  0.0000E+00  0.0000E+00  0.0000E+00  0.0000E+00
    -57.215  0.0000E+00  0.0000E+00  0.0000E+00  0.0000E+00
    -56.936  0.0000E+00  0.0000E+00  0.0000E+00  0.0000E+00
    -56.657  0.0000E+00  0.0000E+00  0.0000E+00  0.0000E+00
    -56.378  0.0000E+00  0.0000E+00  0.0000E+00  0.0000E+00
    -56.099  0.0000E+00  0.0000E+00  0.0000E+00  0.0000E+00
    -55.821  0.0000E+00  0.0000E+00  0.0000E+00  0.0000E+00
    -55.542  0.0000E+00  0.0000E+00  0.0000E+00  0.0000E+00
    -55.263  0.0000E+00  0.0000E+00  0.0000E+00  0.0000E+00
    -54.984  0.0000E+00  0.0000E+00  0.0000E+00  0.0000E+00
    -54.706  0.4361E+02  0.4361E+02  0.7923E+01  0.7923E+01
    -54.427  0.7964E+02  0.7964E+02  0.1268E+02  0.1268E+02
    -54.148  0.0000E+00  0.0000E+00  0.1500E+02  0.1500E+02
    -53.869  0.0000E+00  0.0000E+00  0.1500E+02  0.1500E+02
    -53.590  0.0000E+00  0.0000E+00  0.1500E+02  0.1500E+02
    -53.312  0.0000E+00  0.0000E+00  0.1500E+02  0.1500E+02
    -53.033  0.0000E+00  0.0000E+00  0.1500E+02  0.1500E+02
    -52.754  0.0000E+00  0.0000E+00  0.1500E+02  0.1500E+02
    -52.475  0.0000E+00  0.0000E+00  0.1500E+02  0.1500E+02
    -52.197  0.0000E+00  0.0000E+00  0.1500E+02  0.1500E+02
    -51.918  0.0000E+00  0.0000E+00  0.1500E+02  0.1500E+02
    -51.639  0.0000E+00  0.0000E+00  0.1500E+02  0.1500E+02
    -51.360  0.0000E+00  0.0000E+00  0.1500E+02  0.1500E+02
    -51.082  0.0000E+00  0.0000E+00  0.1500E+02  0.1500E+02
    -50.803  0.0000E+00  0.0000E+00  0.1500E+02  0.1500E+02
    -50.524  0.0000E+00  0.0000E+00  0.1500E+02  0.1500E+02
    -50.245  0.0000E+00  0.0000E+00  0.1500E+02  0.1500E+02
    -49.966  0.0000E+00  0.0000E+00  0.1500E+02  0.1500E+02
    -49.688  0.0000E+00  0.0000E+00  0.1500E+02  0.1500E+02
    -49.409  0.0000E+00  0.0000E+00  0.1500E+02  0.1500E+02
    -49.130  0.0000E+00  0.0000E+00  0.1500E+02  0.1500E+02
    -48.851  0.0000E+00  0.0000E+00  0.1500E+02  0.1500E+02
    -48.573  0.0000E+00  0.0000E+00  0.1500E+02  0.1500E+02
    -48.294  0.0000E+00  0.0000E+00  0.1500E+02  0.1500E+02
    -48.015  0.0000E+00  0.0000E+00  0.1500E+02  0.1500E+02
    -47.736  0.0000E+00  0.0000E+00  0.1500E+02  0.1500E+02
    -47.457  0.0000E+00  0.0000E+00  0.1500E+02  0.1500E+02
    -47.179  0.0000E+00  0.0000E+00  0.1500E+02  0.1500E+02
    -46.900  0.0000E+00  0.0000E+00  0.1500E+02  0.1500E+02
    -46.621  0.0000E+00  0.0000E+00  0.1500E+02  0.1500E+02
    -46.342  0.0000E+00  0.0000E+00  0.1500E+02  0.1500E+02
    -46.064  0.0000E+00  0.0000E+00  0.1500E+02  0.1500E+02
    -45.785  0.0000E+00  0.0000E+00  0.1500E+02  0.1500E+02
    -45.506  0.0000E+00  0.0000E+00  0.1500E+02  0.1500E+02
    -45.227  0.0000E+00  0.0000E+00  0.1500E+02  0.1500E+02
    -44.949  0.0000E+00  0.0000E+00  0.1500E+02  0.1500E+02
    -44.670  0.0000E+00  0.0000E+00  0.1500E+02  0.1500E+02
    -44.391  0.0000E+00  0.0000E+00  0.1500E+02  0.1500E+02
    -44.112  0.0000E+00  0.0000E+00  0.1500E+02  0.1500E+02
    -43.833  0.0000E+00  0.0000E+00  0.1500E+02  0.1500E+02
    -43.555  0.0000E+00  0.0000E+00  0.1500E+02  0.1500E+02
    -43.276  0.0000E+00  0.0000E+00  0.1500E+02  0.1500E+02
    -42.997  0.0000E+00  0.0000E+00  0.1500E+02  0.1500E+02
    -42.718  0.0000E+00  0.0000E+00  0.1500E+02  0.1500E+02
    -42.440  0.0000E+00  0.0000E+00  0.1500E+02  0.1500E+02
    -42.161  0.0000E+00  0.0000E+00  0.1500E+02  0.1500E+02
    -41.882  0.0000E+00  0.0000E+00  0.1500E+02  0.1500E+02
    -41.603  0.0000E+00  0.0000E+00  0.1500E+02  0.1500E+02
    -41.324  0.0000E+00  0.0000E+00  0.1500E+02  0.1500E+02
    -41.046  0.0000E+00  0.0000E+00  0.1500E+02  0.1500E+02
    -40.767  0.0000E+00  0.0000E+00  0.1500E+02  0.1500E+02
    -40.488  0.0000E+00  0.0000E+00  0.1500E+02  0.1500E+02
    -40.209  0.0000E+00  0.0000E+00  0.1500E+02  0.1500E+02
    -39.931  0.0000E+00  0.0000E+00  0.1500E+02  0.1500E+02
    -39.652  0.0000E+00  0.0000E+00  0.1500E+02  0.1500E+02
    -39.373  0.0000E+00  0.0000E+00  0.1500E+02  0.1500E+02
    -39.094  0.0000E+00  0.0000E+00  0.1500E+02  0.1500E+02
    -38.816  0.0000E+00  0.0000E+00  0.1500E+02  0.1500E+02
    -38.537  0.0000E+00  0.0000E+00  0.1500E+02  0.1500E+02
    -38.258  0.0000E+00  0.0000E+00  0.1500E+02  0.1500E+02
    -37.979  0.0000E+00  0.0000E+00  0.1500E+02  0.1500E+02
    -37.700  0.0000E+00  0.0000E+00  0.1500E+02  0.1500E+02
    -37.422  0.0000E+00  0.0000E+00  0.1500E+02  0.1500E+02
    -37.143  0.0000E+00  0.0000E+00  0.1500E+02  0.1500E+02
    -36.864  0.0000E+00  0.0000E+00  0.1500E+02  0.1500E+02
    -36.585  0.0000E+00  0.0000E+00  0.1500E+02  0.1500E+02
    -36.307  0.0000E+00  0.0000E+00  0.1500E+02  0.1500E+02
    -36.028  0.0000E+00  0.0000E+00  0.1500E+02  0.1500E+02
    -35.749  0.0000E+00  0.0000E+00  0.1500E+02  0.1500E+02
    -35.470  0.0000E+00  0.0000E+00  0.1500E+02  0.1500E+02
    -35.191  0.0000E+00  0.0000E+00  0.1500E+02  0.1500E+02
    -34.913  0.0000E+00  0.0000E+00  0.1500E+02  0.1500E+02
    -34.634  0.0000E+00  0.0000E+00  0.1500E+02  0.1500E+02
    -34.355  0.0000E+00  0.0000E+00  0.1500E+02  0.1500E+02
    -34.076  0.0000E+00  0.0000E+00  0.1500E+02  0.1500E+02
    -33.798  0.0000E+00  0.0000E+00  0.1500E+02  0.1500E+02
    -33.519  0.0000E+00  0.0000E+00  0.1500E+02  0.1500E+02
    -33.240  0.0000E+00  0.0000E+00  0.1500E+02  0.1500E+02
    -32.961  0.0000E+00  0.0000E+00  0.1500E+02  0.1500E+02
    -32.683  0.0000E+00  0.0000E+00  0.1500E+02  0.1500E+02
    -32.404  0.0000E+00  0.0000E+00  0.1500E+02  0.1500E+02
    -32.125  0.0000E+00  0.0000E+00  0.1500E+02  0.1500E+02
    -31.846  0.0000E+00  0.0000E+00  0.1500E+02  0.1500E+02
    -31.567  0.0000E+00  0.0000E+00  0.1500E+02  0.1500E+02
    -31.289  0.0000E+00  0.0000E+00  0.1500E+02  0.1500E+02
    -31.010  0.0000E+00  0.0000E+00  0.1500E+02  0.1500E+02
    -30.731  0.0000E+00  0.0000E+00  0.1500E+02  0.1500E+02
    -30.452  0.0000E+00  0.0000E+00  0.1500E+02  0.1500E+02
    -30.174  0.0000E+00  0.0000E+00  0.1500E+02  0.1500E+02
    -29.895  0.0000E+00  0.0000E+00  0.1500E+02  0.1500E+02
    -29.616  0.0000E+00  0.0000E+00  0.1500E+02  0.1500E+02
    -29.337  0.0000E+00  0.0000E+00  0.1500E+02  0.1500E+02
    -29.058  0.0000E+00  0.0000E+00  0.1500E+02  0.1500E+02
    -28.780  0.0000E+00  0.0000E+00  0.1500E+02  0.1500E+02
    -28.501  0.0000E+00  0.0000E+00  0.1500E+02  0.1500E+02
    -28.222  0.0000E+00  0.0000E+00  0.1500E+02  0.1500E+02
    -27.943  0.0000E+00  0.0000E+00  0.1500E+02  0.1500E+02
    -27.665  0.0000E+00  0.0000E+00  0.1500E+02  0.1500E+02
    -27.386  0.0000E+00  0.0000E+00  0.1500E+02  0.1500E+02
    -27.107  0.0000E+00  0.0000E+00  0.1500E+02  0.1500E+02
    -26.828  0.0000E+00  0.0000E+00  0.1500E+02  0.1500E+02
    -26.550  0.0000E+00  0.0000E+00  0.1500E+02  0.1500E+02
    -26.271  0.0000E+00  0.0000E+00  0.1500E+02  0.1500E+02
    -25.992  0.0000E+00  0.0000E+00  0.1500E+02  0.1500E+02
    -25.713  0.0000E+00  0.0000E+00  0.1500E+02  0.1500E+02
    -25.434  0.0000E+00  0.0000E+00  0.1500E+02  0.1500E+02
    -25.156  0.0000E+00  0.0000E+00  0.1500E+02  0.1500E+02
    -24.877  0.0000E+00  0.0000E+00  0.1500E+02  0.1500E+02
    -24.598  0.0000E+00  0.0000E+00  0.1500E+02  0.1500E+02
    -24.319  0.0000E+00  0.0000E+00  0.1500E+02  0.1500E+02
    -24.041  0.0000E+00  0.0000E+00  0.1500E+02  0.1500E+02
    -23.762  0.0000E+00  0.0000E+00  0.1500E+02  0.1500E+02
    -23.483  0.0000E+00  0.0000E+00  0.1500E+02  0.1500E+02
    -23.204  0.0000E+00  0.0000E+00  0.1500E+02  0.1500E+02
    -22.925  0.0000E+00  0.0000E+00  0.1500E+02  0.1500E+02
    -22.647  0.0000E+00  0.0000E+00  0.1500E+02  0.1500E+02
    -22.368  0.0000E+00  0.0000E+00  0.1500E+02  0.1500E+02
    -22.089  0.0000E+00  0.0000E+00  0.1500E+02  0.1500E+02
    -21.810  0.0000E+00  0.0000E+00  0.1500E+02  0.1500E+02
    -21.532  0.0000E+00  0.0000E+00  0.1500E+02  0.1500E+02
    -21.253  0.0000E+00  0.0000E+00  0.1500E+02  0.1500E+02
    -20.974  0.0000E+00  0.0000E+00  0.1500E+02  0.1500E+02
    -20.695  0.0000E+00  0.0000E+00  0.1500E+02  0.1500E+02
    -20.417  0.0000E+00  0.0000E+00  0.1500E+02  0.1500E+02
    -20.138  0.0000E+00  0.0000E+00  0.1500E+02  0.1500E+02
    -19.859  0.0000E+00  0.0000E+00  0.1500E+02  0.1500E+02
    -19.580  0.0000E+00  0.0000E+00  0.1500E+02  0.1500E+02
    -19.301  0.0000E+00  0.0000E+00  0.1500E+02  0.1500E+02
    -19.023  0.0000E+00  0.0000E+00  0.1500E+02  0.1500E+02
    -18.744  0.0000E+00  0.0000E+00  0.1500E+02  0.1500E+02
    -18.465  0.0000E+00  0.0000E+00  0.1500E+02  0.1500E+02
    -18.186  0.0000E+00  0.0000E+00  0.1500E+02  0.1500E+02
    -17.908  0.0000E+00  0.0000E+00  0.1500E+02  0.1500E+02
    -17.629  0.0000E+00  0.0000E+00  0.1500E+02  0.1500E+02
    -17.350  0.0000E+00  0.0000E+00  0.1500E+02  0.1500E+02
    -17.071  0.0000E+00  0.0000E+00  0.1500E+02  0.1500E+02
    -16.792  0.0000E+00  0.0000E+00  0.1500E+02  0.1500E+02
    -16.514  0.0000E+00  0.0000E+00  0.1500E+02  0.1500E+02
    -16.235  0.0000E+00  0.0000E+00  0.1500E+02  0.1500E+02
    -15.956  0.0000E+00  0.0000E+00  0.1500E+02  0.1500E+02
    -15.677  0.0000E+00  0.0000E+00  0.1500E+02  0.1500E+02
    -15.399  0.0000E+00  0.0000E+00  0.1500E+02  0.1500E+02
    -15.120  0.0000E+00  0.0000E+00  0.1500E+02  0.1500E+02
    -14.841  0.0000E+00  0.0000E+00  0.1500E+02  0.1500E+02
    -14.562  0.0000E+00  0.0000E+00  0.1500E+02  0.1500E+02
    -14.284  0.0000E+00  0.0000E+00  0.1500E+02  0.1500E+02
    -14.005  0.0000E+00  0.0000E+00  0.1500E+02  0.1500E+02
    -13.726  0.0000E+00  0.0000E+00  0.1500E+02  0.1500E+02
    -13.447  0.0000E+00  0.0000E+00  0.1500E+02  0.1500E+02
    -13.168  0.0000E+00  0.0000E+00  0.1500E+02  0.1500E+02
    -12.890  0.0000E+00  0.0000E+00  0.1500E+02  0.1500E+02
    -12.611  0.0000E+00  0.0000E+00  0.1500E+02  0.1500E+02
    -12.332  0.0000E+00  0.0000E+00  0.1500E+02  0.1500E+02
    -12.053  0.0000E+00  0.0000E+00  0.1500E+02  0.1500E+02
    -11.775  0.0000E+00  0.0000E+00  0.1500E+02  0.1500E+02
    -11.496  0.0000E+00  0.0000E+00  0.1500E+02  0.1500E+02
    -11.217  0.0000E+00  0.0000E+00  0.1500E+02  0.1500E+02
    -10.938  0.0000E+00  0.0000E+00  0.1500E+02  0.1500E+02
    -10.659  0.0000E+00  0.0000E+00  0.1500E+02  0.1500E+02
    -10.381  0.0000E+00  0.0000E+00  0.1500E+02  0.1500E+02
    -10.102  0.0000E+00  0.0000E+00  0.1500E+02  0.1500E+02
     -9.823  0.0000E+00  0.0000E+00  0.1500E+02  0.1500E+02
     -9.544  0.0000E+00  0.0000E+00  0.1500E+02  0.1500E+02
     -9.266  0.0000E+00  0.0000E+00  0.1500E+02  0.1500E+02
     -8.987  0.0000E+00  0.0000E+00  0.1500E+02  0.1500E+02
     -8.708  0.0000E+00  0.0000E+00  0.1500E+02  0.1500E+02
     -8.429  0.0000E+00  0.0000E+00  0.1500E+02  0.1500E+02
     -8.151  0.0000E+00  0.0000E+00  0.1500E+02  0.1500E+02
     -7.872  0.0000E+00  0.0000E+00  0.1500E+02  0.1500E+02
     -7.593  0.0000E+00  0.0000E+00  0.1500E+02  0.1500E+02
     -7.314  0.0000E+00  0.0000E+00  0.1500E+02  0.1500E+02
     -7.035  0.0000E+00  0.0000E+00  0.1500E+02  0.1500E+02
     -6.757  0.0000E+00  0.0000E+00  0.1500E+02  0.1500E+02
     -6.478  0.0000E+00  0.0000E+00  0.1500E+02  0.1500E+02
     -6.199  0.0000E+00  0.0000E+00  0.1500E+02  0.1500E+02
     -5.920  0.0000E+00  0.0000E+00  0.1500E+02  0.1500E+02
     -5.642  0.0000E+00  0.0000E+00  0.1500E+02  0.1500E+02
     -5.363  0.0000E+00  0.0000E+00  0.1500E+02  0.1500E+02
     -5.084  0.0000E+00  0.0000E+00  0.1500E+02  0.1500E+02
     -4.805  0.0000E+00  0.0000E+00  0.1500E+02  0.1500E+02
     -4.526  0.0000E+00  0.0000E+00  0.1500E+02  0.1500E+02
     -4.248  0.0000E+00  0.0000E+00  0.1500E+02  0.1500E+02
     -3.969  0.0000E+00  0.0000E+00  0.1500E+02  0.1500E+02
     -3.690  0.0000E+00  0.0000E+00  0.1500E+02  0.1500E+02
     -3.411  0.0000E+00  0.0000E+00  0.1500E+02  0.1500E+02
     -3.133  0.0000E+00  0.0000E+00  0.1500E+02  0.1500E+02
     -2.854  0.0000E+00  0.0000E+00  0.1500E+02  0.1500E+02
     -2.575  0.0000E+00  0.0000E+00  0.1500E+02  0.1500E+02
     -2.296  0.0000E+00  0.0000E+00  0.1500E+02  0.1500E+02
     -2.018  0.0000E+00  0.0000E+00  0.1500E+02  0.1500E+02
     -1.739  0.2152E-01  0.2152E-01  0.1500E+02  0.1500E+02
     -1.460  0.2479E+00  0.2479E+00  0.1503E+02  0.1503E+02
     -1.181  0.2491E+00  0.2491E+00  0.1511E+02  0.1511E+02
     -0.902  0.2734E+00  0.2734E+00  0.1518E+02  0.1518E+02
     -0.624  0.2842E+00  0.2842E+00  0.1526E+02  0.1526E+02
     -0.345  0.3662E+00  0.3662E+00  0.1535E+02  0.1535E+02
     -0.066  0.4267E+00  0.4267E+00  0.1546E+02  0.1546E+02
      0.213  0.5399E+00  0.5399E+00  0.1559E+02  0.1559E+02
      0.491  0.6656E+00  0.6656E+00  0.1576E+02  0.1576E+02
      0.770  0.6988E+00  0.6988E+00  0.1596E+02  0.1596E+02
      1.049  0.5777E+00  0.5777E+00  0.1613E+02  0.1613E+02
      1.328  0.6393E+00  0.6393E+00  0.1629E+02  0.1629E+02
      1.607  0.6530E+00  0.6530E+00  0.1649E+02  0.1649E+02
      1.885  0.7249E+00  0.7249E+00  0.1667E+02  0.1667E+02
      2.164  0.8512E+00  0.8512E+00  0.1690E+02  0.1690E+02
      2.443  0.7560E+00  0.7560E+00  0.1711E+02  0.1711E+02
      2.722  0.1007E+01  0.1007E+01  0.1737E+02  0.1737E+02
      3.000  0.1223E+01  0.1223E+01  0.1771E+02  0.1771E+02
      3.279  0.9518E+00  0.9518E+00  0.1805E+02  0.1805E+02
      3.558  0.6866E+00  0.6866E+00  0.1827E+02  0.1827E+02
      3.837  0.1039E+01  0.1039E+01  0.1852E+02  0.1852E+02
      4.115  0.1894E+01  0.1894E+01  0.1891E+02  0.1891E+02
      4.394  0.1553E+01  0.1553E+01  0.1953E+02  0.1953E+02
      4.673  0.2272E+01  0.2272E+01  0.1998E+02  0.1998E+02
      4.952  0.2547E+01  0.2547E+01  0.2061E+02  0.2061E+02
      5.231  0.2377E+01  0.2377E+01  0.2142E+02  0.2142E+02
      5.509  0.5535E+01  0.5535E+01  0.2273E+02  0.2273E+02
      5.788  0.7367E+01  0.7367E+01  0.2430E+02  0.2430E+02
      6.067  0.5342E+01  0.5342E+01  0.2657E+02  0.2657E+02
      6.346  0.8242E+01  0.8242E+01  0.2879E+02  0.2879E+02
      6.624  0.6631E+01  0.6631E+01  0.3065E+02  0.3065E+02
      6.903  0.4692E+01  0.4692E+01  0.3218E+02  0.3218E+02
      7.182  0.1051E+02  0.1051E+02  0.3424E+02  0.3424E+02
      7.461  0.8962E+01  0.8962E+01  0.3745E+02  0.3745E+02
      7.740  0.8407E+01  0.8407E+01  0.3928E+02  0.3928E+02
      8.018  0.6604E+01  0.6604E+01  0.4168E+02  0.4168E+02
      8.297  0.4051E+01  0.4051E+01  0.4342E+02  0.4342E+02
      8.576  0.1373E+01  0.1373E+01  0.4407E+02  0.4407E+02
      8.855  0.1140E+01  0.1140E+01  0.4447E+02  0.4447E+02
      9.133  0.2134E+01  0.2134E+01  0.4508E+02  0.4508E+02
      9.412  0.2358E+01  0.2358E+01  0.4565E+02  0.4565E+02
      9.691  0.1252E+01  0.1252E+01  0.4617E+02  0.4617E+02
      9.970  0.9490E+00  0.9490E+00  0.4646E+02  0.4646E+02
     10.248  0.1065E+01  0.1065E+01  0.4674E+02  0.4674E+02
     10.527  0.1266E+01  0.1266E+01  0.4704E+02  0.4704E+02
     10.806  0.9397E+00  0.9397E+00  0.4732E+02  0.4732E+02
     11.085  0.8224E+00  0.8224E+00  0.4757E+02  0.4757E+02
     11.364  0.9575E+00  0.9575E+00  0.4780E+02  0.4780E+02
     11.642  0.1073E+01  0.1073E+01  0.4808E+02  0.4808E+02
     11.921  0.1204E+01  0.1204E+01  0.4844E+02  0.4844E+02
     12.200  0.2115E+01  0.2115E+01  0.4893E+02  0.4893E+02
     12.479  0.1342E+01  0.1342E+01  0.4936E+02  0.4936E+02
     12.757  0.1423E+01  0.1423E+01  0.4975E+02  0.4975E+02
     13.036  0.1093E+01  0.1093E+01  0.5009E+02  0.5009E+02
     13.315  0.1046E+01  0.1046E+01  0.5039E+02  0.5039E+02
     13.594  0.1197E+01  0.1197E+01  0.5071E+02  0.5071E+02
     13.873  0.1474E+01  0.1474E+01  0.5108E+02  0.5108E+02
     14.151  0.1379E+01  0.1379E+01  0.5153E+02  0.5153E+02
     14.430  0.1409E+01  0.1409E+01  0.5189E+02  0.5189E+02
     14.709  0.1415E+01  0.1415E+01  0.5229E+02  0.5229E+02
     14.988  0.1770E+01  0.1770E+01  0.5272E+02  0.5272E+02
     15.266  0.1368E+01  0.1368E+01  0.5319E+02  0.5319E+02
     15.545  0.1194E+01  0.1194E+01  0.5351E+02  0.5351E+02
     15.824  0.1475E+01  0.1475E+01  0.5388E+02  0.5388E+02
     16.103  0.1548E+01  0.1548E+01  0.5430E+02  0.5430E+02
     16.381  0.1325E+01  0.1325E+01  0.5472E+02  0.5472E+02
     16.660  0.1784E+01  0.1784E+01  0.5517E+02  0.5517E+02
     16.939  0.1743E+01  0.1743E+01  0.5570E+02  0.5570E+02
     17.218  0.1573E+01  0.1573E+01  0.5619E+02  0.5619E+02
     17.497  0.1223E+01  0.1223E+01  0.5653E+02  0.5653E+02
     17.775  0.1071E+01  0.1071E+01  0.5684E+02  0.5684E+02
     18.054  0.1204E+01  0.1204E+01  0.5717E+02  0.5717E+02
     18.333  0.1564E+01  0.1564E+01  0.5755E+02  0.5755E+02
     18.612  0.2291E+01  0.2291E+01  0.5806E+02  0.5806E+02
     18.890  0.1753E+01  0.1753E+01  0.5856E+02  0.5856E+02
     19.169  0.1230E+01  0.1230E+01  0.5901E+02  0.5901E+02
     19.448  0.9068E+00  0.9068E+00  0.5932E+02  0.5932E+02
     19.727  0.6632E+00  0.6632E+00  0.5954E+02  0.5954E+02
     20.006  0.4735E+00  0.4735E+00  0.5969E+02  0.5969E+02
     20.284  0.3334E+00  0.3334E+00  0.5980E+02  0.5980E+02
     20.563  0.1783E+00  0.1783E+00  0.5989E+02  0.5989E+02
     20.842  0.1525E+00  0.1525E+00  0.5993E+02  0.5993E+02
     21.121  0.1062E+00  0.1062E+00  0.5997E+02  0.5997E+02
     21.399  0.0000E+00  0.0000E+00  0.6000E+02  0.6000E+02
     21.678  0.0000E+00  0.0000E+00  0.6000E+02  0.6000E+02
     21.957  0.0000E+00  0.0000E+00  0.6000E+02  0.6000E+02
     22.236  0.0000E+00  0.0000E+00  0.6000E+02  0.6000E+02
     22.514  0.0000E+00  0.0000E+00  0.6000E+02  0.6000E+02
     22.793  0.0000E+00  0.0000E+00  0.6000E+02  0.6000E+02
     23.072  0.0000E+00  0.0000E+00  0.6000E+02  0.6000E+02
     23.351  0.0000E+00  0.0000E+00  0.6000E+02  0.6000E+02
     23.630  0.0000E+00  0.0000E+00  0.6000E+02  0.6000E+02
     23.908  0.0000E+00  0.0000E+00  0.6000E+02  0.6000E+02
     24.187  0.0000E+00  0.0000E+00  0.6000E+02  0.6000E+02
     24.466  0.0000E+00  0.0000E+00  0.6000E+02  0.6000E+02
     24.745  0.0000E+00  0.0000E+00  0.6000E+02  0.6000E+02
     25.023  0.0000E+00  0.0000E+00  0.6000E+02  0.6000E+02
