       N       E                     dE             d eps       ncg     rms          rms(c)
DAV:   1    -0.444458811769E+02   -0.44446E+02   -0.24458E-01  7680   0.497E+00    0.207E-01
DAV:   2    -0.444482647390E+02   -0.23836E-02   -0.82563E-03  9200   0.140E+00    0.489E-01
DAV:   3    -0.444458796017E+02    0.23851E-02   -0.56588E-03  8648   0.148E+00    0.156E-01
DAV:   4    -0.444458404231E+02    0.39179E-04   -0.66777E-04  9416   0.363E-01    0.470E-02
DAV:   5    -0.444460114590E+02   -0.17104E-03   -0.38532E-04  9424   0.256E-01    0.989E-02
DAV:   6    -0.444458797820E+02    0.13168E-03   -0.24752E-04  8848   0.229E-01    0.153E-02
DAV:   7    -0.444458927082E+02   -0.12926E-04   -0.20366E-05  9968   0.684E-02    0.180E-02
DAV:   8    -0.444458885098E+02    0.41985E-05   -0.83239E-06  8760   0.508E-02    0.387E-03
DAV:   9    -0.444458891195E+02   -0.60977E-06   -0.11039E-06  9160   0.114E-02    0.207E-03
DAV:  10    -0.444458867809E+02    0.23386E-05   -0.14186E-07  8264   0.577E-03    0.348E-04
DAV:  11    -0.444458867785E+02    0.24447E-08   -0.20846E-08  5208   0.132E-03
   1 F= -.44445887E+02 E0= -.44445887E+02  d E =0.000000E+00  mag=     0.0000
