 running on   24 total cores
 distrk:  each k-point on   24 cores,    1 groups
 distr:  one band on    6 cores,    4 groups
 using from now: INCAR     
 vasp.5.4.4.18Apr17-6-g9f103f2a35 (build Jan 03 2018 06:08:52) complex          
  
 POSCAR found :  2 types and       8 ions
 scaLAPACK will be used
 WARNING: for PREC=h ENMAX is automatically increase by 25 %
        this was not the case for versions prior to vasp.4.4
 WARNING: for PREC=h ENMAX is automatically increase by 25 %
        this was not the case for versions prior to vasp.4.4
 LDA part: xc-table for Pade appr. of Perdew
 POSCAR, INCAR and KPOINTS ok, starting setup
 FFT: planning ...
 WAVECAR not read
 entering main loop
       N       E                     dE             d eps       ncg     rms          rms(c)
DAV:   1     0.111689764013E+04    0.11169E+04   -0.51718E+04  9032   0.176E+03
DAV:   2     0.308589493227E+02   -0.10860E+04   -0.10421E+04  7716   0.572E+02
DAV:   3    -0.473848348171E+02   -0.78244E+02   -0.72952E+02  8708   0.173E+02
DAV:   4    -0.500676861406E+02   -0.26829E+01   -0.26636E+01  8672   0.305E+01
DAV:   5    -0.501338999717E+02   -0.66214E-01   -0.66201E-01  8704   0.464E+00    0.293E+01
DAV:   6    -0.602578770868E+02   -0.10124E+02   -0.12810E+02  8636   0.119E+02    0.350E+01
DAV:   7    -0.435782354339E+02    0.16680E+02   -0.44196E+01  8928   0.851E+01    0.738E+00
DAV:   8    -0.439922174528E+02   -0.41398E+00   -0.62110E+00  9536   0.339E+01    0.804E+00
DAV:   9    -0.437694848735E+02    0.22273E+00   -0.30668E+00  9244   0.216E+01    0.321E+00
DAV:  10    -0.437607556087E+02    0.87293E-02   -0.61742E-01  8836   0.992E+00    0.282E+00
DAV:  11    -0.437097402260E+02    0.51015E-01   -0.14364E-01  9108   0.753E+00    0.677E-01
DAV:  12    -0.437086380663E+02    0.11022E-02   -0.35359E-02  8460   0.151E+00    0.339E-01
DAV:  13    -0.437075740287E+02    0.10640E-02   -0.47835E-03 10168   0.895E-01    0.159E-01
DAV:  14    -0.437077487430E+02   -0.17471E-03   -0.17278E-03  9356   0.720E-01    0.180E-01
DAV:  15    -0.437075404532E+02    0.20829E-03   -0.70075E-04  8800   0.492E-01    0.476E-02
DAV:  16    -0.437075476196E+02   -0.71664E-05   -0.11055E-04  9244   0.108E-01    0.139E-02
DAV:  17    -0.437075477713E+02   -0.15169E-06   -0.11849E-05  8632   0.326E-02    0.592E-03
DAV:  18    -0.437075473495E+02    0.42179E-06   -0.11051E-06  9136   0.118E-02    0.247E-03
DAV:  19    -0.437075471581E+02    0.19138E-06   -0.19625E-07 10264   0.442E-03    0.676E-04
DAV:  20    -0.437075470839E+02    0.74229E-07   -0.46340E-08  7036   0.193E-03    0.304E-04
DAV:  21    -0.437075470651E+02    0.18779E-07   -0.28458E-09  4368   0.489E-04    0.122E-04
DAV:  22    -0.437075470611E+02    0.40382E-08   -0.86676E-10  4296   0.237E-04
   1 F= -.43707547E+02 E0= -.43708197E+02  d E =-.437075E+02  mag=    -0.0000
 curvature:   0.00 expect dE= 0.000E+00 dE for cont linesearch  0.000E+00
 trial: gam= 0.00000 g(F)=  0.305E+00 g(S)=  0.144E+01 ort = 0.000E+00 (trialstep = 0.100E+01)
 search vector abs. value=  0.175E+01
 bond charge predicted
       N       E                     dE             d eps       ncg     rms          rms(c)
DAV:   1    -0.126371111521E+03   -0.82664E+02   -0.85743E+02  7996   0.316E+02    0.760E+01
DAV:   2    -0.102355449699E+03    0.24016E+02   -0.71272E+02  8656   0.228E+02    0.652E+01
DAV:   3    -0.524048723952E+02    0.49951E+02   -0.26128E+02  8956   0.150E+02    0.299E+01
DAV:   4    -0.492711943096E+02    0.31337E+01   -0.61138E+01  8524   0.685E+01    0.211E+01
DAV:   5    -0.451443285620E+02    0.41269E+01   -0.11850E+01  9896   0.444E+01    0.110E+01
DAV:   6    -0.445494166699E+02    0.59491E+00   -0.38322E+00  9472   0.301E+01    0.596E+00
DAV:   7    -0.442403713105E+02    0.30905E+00   -0.96386E-01  8904   0.171E+01    0.402E+00
DAV:   8    -0.441878069903E+02    0.52564E-01   -0.33021E-01  9116   0.828E+00    0.296E+00
DAV:   9    -0.441363982423E+02    0.51409E-01   -0.21139E-01  9408   0.703E+00    0.126E+00
DAV:  10    -0.441269689928E+02    0.94292E-02   -0.62524E-02 10448   0.255E+00    0.608E-01
DAV:  11    -0.441241376083E+02    0.28314E-02   -0.70887E-03  8864   0.113E+00    0.138E-01
DAV:  12    -0.441241597857E+02   -0.22177E-04   -0.14464E-03  8864   0.274E-01    0.365E-02
DAV:  13    -0.441241732281E+02   -0.13442E-04   -0.22192E-04  8688   0.133E-01    0.331E-02
DAV:  14    -0.441241705515E+02    0.26767E-05   -0.43583E-05  8648   0.706E-02    0.215E-02
DAV:  15    -0.441241682349E+02    0.23166E-05   -0.80403E-06  8960   0.384E-02    0.696E-03
DAV:  16    -0.441241678746E+02    0.36022E-06   -0.11689E-06 10280   0.866E-03    0.224E-03
DAV:  17    -0.441241678990E+02   -0.24353E-07   -0.25798E-07 10728   0.558E-03    0.135E-03
DAV:  18    -0.441241678810E+02    0.17953E-07   -0.95643E-08  7664   0.327E-03    0.344E-04
DAV:  19    -0.441241678793E+02    0.17317E-08   -0.35353E-09  4200   0.558E-04
   2 F= -.44124168E+02 E0= -.44124048E+02  d E =-.416621E+00  mag=     0.0000
 trial-energy change:   -0.416621  1 .order   -0.484368   -1.746150    0.777414
 step:   0.6556(harm=  0.6919)  dis= 0.05608  next Energy=   -44.260819 (dE=-0.553E+00)
 bond charge predicted
       N       E                     dE             d eps       ncg     rms          rms(c)
DAV:   1    -0.561450157682E+02   -0.12021E+02   -0.10712E+02  8360   0.960E+01    0.354E+01
DAV:   2    -0.696958824665E+02   -0.13551E+02   -0.18700E+02  8488   0.140E+02    0.401E+01
DAV:   3    -0.443175614465E+02    0.25378E+02   -0.64344E+01  8616   0.884E+01    0.451E+00
DAV:   4    -0.445285938306E+02   -0.21103E+00   -0.39976E+00  9000   0.211E+01    0.556E+00
DAV:   5    -0.445172755327E+02    0.11318E-01   -0.22838E+00  9616   0.178E+01    0.535E+00
DAV:   6    -0.443215120449E+02    0.19576E+00   -0.98008E-01  9168   0.102E+01    0.320E+00
DAV:   7    -0.442565020739E+02    0.65010E-01   -0.16973E-01  9032   0.712E+00    0.778E-01
DAV:   8    -0.442545636394E+02    0.19384E-02   -0.49833E-02  9048   0.193E+00    0.414E-01
DAV:   9    -0.442543892056E+02    0.17443E-03   -0.74365E-03  9288   0.137E+00    0.311E-01
DAV:  10    -0.442536060937E+02    0.78311E-03   -0.25768E-03  8632   0.770E-01    0.452E-02
DAV:  11    -0.442536278335E+02   -0.21740E-04   -0.34943E-04  8224   0.152E-01    0.185E-02
DAV:  12    -0.442536258865E+02    0.19470E-05   -0.30774E-05  8712   0.546E-02    0.169E-02
DAV:  13    -0.442536219777E+02    0.39087E-05   -0.80299E-06  9384   0.266E-02    0.348E-03
DAV:  14    -0.442536218959E+02    0.81789E-07   -0.13182E-06  8528   0.122E-02    0.895E-04
DAV:  15    -0.442536219245E+02   -0.28580E-07   -0.86887E-08  8160   0.299E-03    0.415E-04
DAV:  16    -0.442536219189E+02    0.56498E-08   -0.14720E-08  4448   0.127E-03
   3 F= -.44253622E+02 E0= -.44253209E+02  d E =-.546075E+00  mag=    -0.0000
 curvature:  -0.34 expect dE=-0.719E-01 dE for cont linesearch -0.108E-04
 trial: gam= 0.12504 g(F)=  0.756E-01 g(S)=  0.135E+00 ort =-0.745E-02 (trialstep = 0.931E+00)
 search vector abs. value=  0.236E+00
 bond charge predicted
       N       E                     dE             d eps       ncg     rms          rms(c)
DAV:   1    -0.461467722201E+02   -0.18932E+01   -0.27920E+01  8592   0.407E+01    0.131E+01
DAV:   2    -0.472868773312E+02   -0.11401E+01   -0.21294E+01  8504   0.459E+01    0.152E+01
DAV:   3    -0.445130796242E+02    0.27738E+01   -0.88304E+00  8608   0.318E+01    0.359E+00
DAV:   4    -0.448458429588E+02   -0.33276E+00   -0.17177E+00  8744   0.236E+01    0.903E+00
DAV:   5    -0.444234081928E+02    0.42243E+00   -0.23872E+00  8728   0.128E+01    0.214E+00
DAV:   6    -0.444001526594E+02    0.23256E-01   -0.17258E-01  9808   0.549E+00    0.101E+00
DAV:   7    -0.443941466908E+02    0.60060E-02   -0.34401E-02  8596   0.221E+00    0.450E-01
DAV:   8    -0.443933226898E+02    0.82400E-03   -0.56383E-03  8696   0.130E+00    0.243E-01
DAV:   9    -0.443931056232E+02    0.21707E-03   -0.22965E-03  9120   0.577E-01    0.933E-02
DAV:  10    -0.443930923231E+02    0.13300E-04   -0.53577E-04  8496   0.267E-01    0.245E-02
DAV:  11    -0.443930855132E+02    0.68099E-05   -0.38104E-05  9176   0.521E-02    0.111E-02
DAV:  12    -0.443930850738E+02    0.43940E-06   -0.10216E-05  8528   0.324E-02    0.332E-03
DAV:  13    -0.443930848864E+02    0.18739E-06   -0.49700E-07  9376   0.847E-03    0.669E-04
DAV:  14    -0.443930847837E+02    0.10267E-06   -0.57958E-08  7768   0.164E-03    0.270E-04
DAV:  15    -0.443930847619E+02    0.21842E-07   -0.45768E-09  4504   0.676E-04    0.871E-05
DAV:  16    -0.443930847565E+02    0.54024E-08   -0.12038E-09  4176   0.303E-04
   4 F= -.44393085E+02 E0= -.44393348E+02  d E =-.139463E+00  mag=     0.0000
 trial-energy change:   -0.139463  1 .order   -0.137620   -0.195493   -0.079747
 step:   1.4877(harm=  1.5726)  dis= 0.07942  next Energy=   -44.417312 (dE=-0.164E+00)
 bond charge predicted
       N       E                     dE             d eps       ncg     rms          rms(c)
DAV:   1    -0.450689812502E+02   -0.67590E+00   -0.10383E+01  8592   0.252E+01    0.784E+00
DAV:   2    -0.454329100324E+02   -0.36393E+00   -0.74510E+00  8536   0.273E+01    0.891E+00
DAV:   3    -0.444633403883E+02    0.96957E+00   -0.30794E+00  8552   0.179E+01    0.196E+00
DAV:   4    -0.445011832149E+02   -0.37843E-01   -0.27126E-01 10200   0.958E+00    0.340E+00
DAV:   5    -0.444189291676E+02    0.82254E-01   -0.14880E-01  8792   0.756E+00    0.443E-01
DAV:   6    -0.444206940510E+02   -0.17649E-02   -0.30472E-02  9560   0.158E+00    0.572E-01
DAV:   7    -0.444187091056E+02    0.19849E-02   -0.86992E-03  8632   0.132E+00    0.110E-01
DAV:   8    -0.444188664333E+02   -0.15733E-03   -0.12510E-03  9952   0.549E-01    0.173E-01
DAV:   9    -0.444186940263E+02    0.17241E-03   -0.70954E-04  8856   0.445E-01    0.522E-02
DAV:  10    -0.444186839483E+02    0.10078E-04   -0.98400E-05  9408   0.147E-01    0.933E-03
DAV:  11    -0.444186832115E+02    0.73685E-06   -0.90230E-06  8120   0.271E-02    0.437E-03
DAV:  12    -0.444186827281E+02    0.48340E-06   -0.74009E-07  9112   0.101E-02    0.847E-04
DAV:  13    -0.444186826498E+02    0.78235E-07   -0.92221E-08  8052   0.281E-03    0.276E-04
DAV:  14    -0.444186826201E+02    0.29751E-07   -0.67823E-09  4316   0.944E-04    0.186E-04
DAV:  15    -0.444186826177E+02    0.24011E-08   -0.16047E-09  4144   0.423E-04
   5 F= -.44418683E+02 E0= -.44419124E+02  d E =-.165061E+00  mag=     0.0000
 curvature:  -0.87 expect dE=-0.596E-02 dE for cont linesearch -0.613E-04
 ZBRENT: extrapolating
 opt :   1.5155  next Energy=   -44.418739 (dE=-0.165E+00)
 bond charge predicted
       N       E                     dE             d eps       ncg     rms          rms(c)
DAV:   1    -0.444204025271E+02   -0.17199E-02   -0.26609E-02  8584   0.129E+00    0.392E-01
DAV:   2    -0.444212799447E+02   -0.87742E-03   -0.19140E-02  8548   0.137E+00    0.450E-01
DAV:   3    -0.444188717554E+02    0.24082E-02   -0.79409E-03  8556   0.870E-01    0.108E-01
DAV:   4    -0.444190975035E+02   -0.22575E-03   -0.17894E-03  9856   0.579E-01    0.224E-01
DAV:   5    -0.444187399086E+02    0.35759E-03   -0.12055E-03  9124   0.519E-01    0.234E-02
DAV:   6    -0.444187443176E+02   -0.44090E-05   -0.72527E-05 10548   0.110E-01    0.277E-02
DAV:   7    -0.444187394044E+02    0.49132E-05   -0.19311E-05  8484   0.810E-02    0.589E-03
DAV:   8    -0.444187395547E+02   -0.15032E-06   -0.31443E-06  8916   0.264E-02    0.748E-03
DAV:   9    -0.444187391015E+02    0.45318E-06   -0.14478E-06  8884   0.198E-02    0.301E-03
DAV:  10    -0.444187389743E+02    0.12721E-06   -0.23705E-07  8800   0.576E-03    0.573E-04
DAV:  11    -0.444187389327E+02    0.41568E-07   -0.22711E-08  5520   0.131E-03    0.290E-04
DAV:  12    -0.444187389046E+02    0.28158E-07   -0.71402E-09  4012   0.914E-04    0.774E-05
DAV:  13    -0.444187389003E+02    0.42346E-08   -0.92643E-10  3948   0.260E-04
   6 F= -.44418739E+02 E0= -.44419178E+02  d E =-.165117E+00  mag=    -0.0000
 curvature:  -0.81 expect dE=-0.607E-02 dE for cont linesearch -0.396E-07
 trial: gam= 0.08276 g(F)=  0.729E-03 g(S)=  0.680E-02 ort =-0.108E-03 (trialstep = 0.105E+01)
 search vector abs. value=  0.913E-02
 bond charge predicted
       N       E                     dE             d eps       ncg     rms          rms(c)
DAV:   1    -0.447124121403E+02   -0.29367E+00   -0.35503E+00  8688   0.210E+01    0.547E+00
DAV:   2    -0.450746655882E+02   -0.36225E+00   -0.53725E+00  8664   0.217E+01    0.773E+00
DAV:   3    -0.445531143382E+02    0.52155E+00   -0.33684E+00  8680   0.186E+01    0.439E+00
DAV:   4    -0.444317463407E+02    0.12137E+00   -0.75936E-01  8600   0.117E+01    0.103E+00
DAV:   5    -0.444313708768E+02    0.37546E-03   -0.76885E-02  9400   0.348E+00    0.116E+00
DAV:   6    -0.444230252043E+02    0.83457E-02   -0.24274E-02  8512   0.295E+00    0.336E-01
DAV:   7    -0.444222586878E+02    0.76652E-03   -0.43034E-03  8720   0.633E-01    0.876E-02
DAV:   8    -0.444223311594E+02   -0.72472E-04   -0.53171E-04  9688   0.380E-01    0.124E-01
DAV:   9    -0.444222539294E+02    0.77230E-04   -0.36164E-04  8796   0.316E-01    0.432E-02
DAV:  10    -0.444222438073E+02    0.10122E-04   -0.64585E-05  9048   0.108E-01    0.655E-03
DAV:  11    -0.444222438807E+02   -0.73429E-07   -0.54875E-06  8632   0.249E-02    0.293E-03
DAV:  12    -0.444222439713E+02   -0.90586E-07   -0.46574E-07  8636   0.773E-03    0.110E-03
DAV:  13    -0.444222440175E+02   -0.46231E-07   -0.76345E-08  7864   0.295E-03    0.237E-04
DAV:  14    -0.444222440255E+02   -0.80181E-08   -0.10539E-08  4748   0.895E-04
   7 F= -.44422244E+02 E0= -.44422521E+02  d E =-.350513E-02  mag=    -0.0000
 trial-energy change:   -0.003505  1 .order   -0.003557   -0.007884    0.000769
 step:   0.9517(harm=  0.9548)  dis= 0.00253  next Energy=   -44.422279 (dE=-0.354E-02)
 bond charge predicted
       N       E                     dE             d eps       ncg     rms          rms(c)
DAV:   1    -0.444247450932E+02   -0.25011E-02   -0.29779E-02  8656   0.192E+00    0.515E-01
DAV:   2    -0.444288616053E+02   -0.41165E-02   -0.48446E-02  8648   0.214E+00    0.800E-01
DAV:   3    -0.444239920638E+02    0.48695E-02   -0.35578E-02  8712   0.231E+00    0.537E-01
DAV:   4    -0.444223528565E+02    0.16392E-02   -0.87977E-03  8600   0.130E+00    0.938E-02
DAV:   5    -0.444223397497E+02    0.13107E-04   -0.77021E-04  8888   0.302E-01    0.944E-02
DAV:   6    -0.444222948499E+02    0.44900E-04   -0.20336E-04  8496   0.270E-01    0.450E-02
DAV:   7    -0.444222781077E+02    0.16742E-04   -0.68539E-05  8856   0.825E-02    0.806E-03
DAV:   8    -0.444222786058E+02   -0.49809E-06   -0.72823E-06  9856   0.395E-02    0.116E-02
DAV:   9    -0.444222772433E+02    0.13626E-05   -0.27194E-06  8712   0.305E-02    0.216E-03
DAV:  10    -0.444222771920E+02    0.51274E-07   -0.25764E-07  8272   0.461E-03    0.970E-04
DAV:  11    -0.444222771878E+02    0.41982E-08   -0.26667E-08  6096   0.166E-03
   8 F= -.44422277E+02 E0= -.44422580E+02  d E =-.353829E-02  mag=     0.0000
 curvature:  -0.58 expect dE=-0.122E-02 dE for cont linesearch -0.811E-07
 trial: gam= 0.28860 g(F)=  0.657E-03 g(S)=  0.145E-02 ort = 0.358E-04 (trialstep = 0.103E+01)
 search vector abs. value=  0.288E-02
 bond charge predicted
       N       E                     dE             d eps       ncg     rms          rms(c)
DAV:   1    -0.444466053870E+02   -0.24328E-01   -0.66515E-01  9456   0.129E+01    0.173E+00
DAV:   2    -0.444716357939E+02   -0.25030E-01   -0.44457E-01  8600   0.641E+00    0.198E+00
DAV:   3    -0.444299340618E+02    0.41702E-01   -0.18090E-01  8592   0.431E+00    0.905E-01
DAV:   4    -0.444294371985E+02    0.49686E-03   -0.54900E-02  8608   0.323E+00    0.816E-01
DAV:   5    -0.444239821630E+02    0.54550E-02   -0.13471E-02 10320   0.165E+00    0.180E-01
DAV:   6    -0.444239912903E+02   -0.91273E-05   -0.21142E-03 10184   0.869E-01    0.175E-01
DAV:   7    -0.444237912727E+02    0.20002E-03   -0.69116E-04  8440   0.466E-01    0.237E-02
DAV:   8    -0.444238047613E+02   -0.13489E-04   -0.91627E-05 10192   0.130E-01    0.446E-02
DAV:   9    -0.444237933728E+02    0.11388E-04   -0.44741E-05  8640   0.122E-01    0.706E-03
DAV:  10    -0.444237935131E+02   -0.14033E-06   -0.39661E-06  8128   0.175E-02    0.288E-03
DAV:  11    -0.444237933547E+02    0.15844E-06   -0.35063E-07  8856   0.642E-03    0.817E-04
DAV:  12    -0.444237932759E+02    0.78835E-07   -0.37346E-08  6520   0.233E-03    0.204E-04
DAV:  13    -0.444237932452E+02    0.30628E-07   -0.40218E-09  4168   0.655E-04    0.953E-05
DAV:  14    -0.444237932378E+02    0.74615E-08   -0.84357E-10  4120   0.274E-04
   9 F= -.44423793E+02 E0= -.44423833E+02  d E =-.151605E-02  mag=    -0.0000
 trial-energy change:   -0.001516  1 .order   -0.001537   -0.002174   -0.000899
 step:   1.9174(harm=  1.7545)  dis= 0.00601  next Energy=   -44.424168 (dE=-0.189E-02)
 bond charge predicted
       N       E                     dE             d eps       ncg     rms          rms(c)
DAV:   1    -0.444413972535E+02   -0.17604E-01   -0.49940E-01  9480   0.111E+01    0.151E+00
DAV:   2    -0.444613560682E+02   -0.19959E-01   -0.34003E-01  8592   0.557E+00    0.175E+00
DAV:   3    -0.444294021337E+02    0.31954E-01   -0.14165E-01  8608   0.388E+00    0.859E-01
DAV:   4    -0.444281245336E+02    0.12776E-02   -0.44746E-02  8616   0.294E+00    0.689E-01
DAV:   5    -0.444244502807E+02    0.36743E-02   -0.99016E-03 10296   0.138E+00    0.204E-01
DAV:   6    -0.444242731975E+02    0.17708E-03   -0.17541E-03  9784   0.795E-01    0.127E-01
DAV:   7    -0.444241705835E+02    0.10261E-03   -0.45525E-04  8496   0.343E-01    0.267E-02
DAV:   8    -0.444241775081E+02   -0.69245E-05   -0.66798E-05  9528   0.131E-01    0.386E-02
DAV:   9    -0.444241686504E+02    0.88577E-05   -0.32882E-05  8656   0.992E-02    0.520E-03
DAV:  10    -0.444241688374E+02   -0.18704E-06   -0.32660E-06  8080   0.134E-02    0.226E-03
DAV:  11    -0.444241686891E+02    0.14831E-06   -0.16574E-07  9128   0.331E-03    0.516E-04
DAV:  12    -0.444241686225E+02    0.66633E-07   -0.15115E-08  4688   0.151E-03    0.169E-04
DAV:  13    -0.444241686035E+02    0.18976E-07   -0.31229E-09  4168   0.565E-04    0.760E-05
DAV:  14    -0.444241685983E+02    0.51805E-08   -0.81203E-10  4128   0.259E-04
  10 F= -.44424169E+02 E0= -.44423949E+02  d E =-.189141E-02  mag=    -0.0000
 curvature:  -1.14 expect dE=-0.675E-03 dE for cont linesearch -0.600E-09
 trial: gam= 0.43204 g(F)=  0.729E-04 g(S)=  0.521E-03 ort = 0.123E-05 (trialstep = 0.121E+01)
 search vector abs. value=  0.113E-02
 bond charge predicted
       N       E                     dE             d eps       ncg     rms          rms(c)
DAV:   1    -0.444376267629E+02   -0.13458E-01   -0.30963E-01  9096   0.756E+00    0.124E+00
DAV:   2    -0.444563838200E+02   -0.18757E-01   -0.25521E-01  8648   0.486E+00    0.174E+00
DAV:   3    -0.444346872265E+02    0.21697E-01   -0.18447E-01  8672   0.479E+00    0.121E+00
DAV:   4    -0.444260724534E+02    0.86148E-02   -0.52474E-02  8584   0.327E+00    0.372E-01
DAV:   5    -0.444247838059E+02    0.12886E-02   -0.53088E-03  9408   0.737E-01    0.122E-01
DAV:   6    -0.444247985207E+02   -0.14715E-04   -0.81554E-04  9272   0.491E-01    0.133E-01
DAV:   7    -0.444246735631E+02    0.12496E-03   -0.29387E-04  8816   0.348E-01    0.184E-02
DAV:   8    -0.444246798830E+02   -0.63199E-05   -0.50027E-05  9416   0.793E-02    0.268E-02
DAV:   9    -0.444246767159E+02    0.31671E-05   -0.20261E-05  8528   0.778E-02    0.929E-03
DAV:  10    -0.444246771144E+02   -0.39849E-06   -0.25011E-06  9240   0.194E-02    0.210E-03
DAV:  11    -0.444246770106E+02    0.10387E-06   -0.32408E-07 10120   0.610E-03    0.956E-04
DAV:  12    -0.444246770323E+02   -0.21748E-07   -0.46914E-08  7232   0.256E-03    0.271E-04
DAV:  13    -0.444246770450E+02   -0.12747E-07   -0.47765E-09  4080   0.698E-04    0.130E-04
DAV:  14    -0.444246770444E+02    0.60390E-09   -0.98671E-10  4032   0.297E-04
  11 F= -.44424677E+02 E0= -.44424344E+02  d E =-.508446E-03  mag=    -0.0000
 trial-energy change:   -0.000508  1 .order   -0.000517   -0.000717   -0.000316
 step:   2.4862(harm=  2.1591)  dis= 0.00665  next Energy=   -44.424835 (dE=-0.666E-03)
 bond charge predicted
       N       E                     dE             d eps       ncg     rms          rms(c)
DAV:   1    -0.444390701496E+02   -0.14393E-01   -0.34771E-01  9088   0.800E+00    0.130E+00
DAV:   2    -0.444584585013E+02   -0.19388E-01   -0.27783E-01  8648   0.506E+00    0.179E+00
DAV:   3    -0.444357049775E+02    0.22754E-01   -0.19690E-01  8696   0.495E+00    0.128E+00
DAV:   4    -0.444263859426E+02    0.93190E-02   -0.58125E-02  8592   0.341E+00    0.405E-01
DAV:   5    -0.444248594541E+02    0.15265E-02   -0.58994E-03  9552   0.794E-01    0.121E-01
DAV:   6    -0.444248749667E+02   -0.15513E-04   -0.86076E-04  9464   0.478E-01    0.134E-01
DAV:   7    -0.444247521314E+02    0.12284E-03   -0.28984E-04  8784   0.354E-01    0.196E-02
DAV:   8    -0.444247580621E+02   -0.59307E-05   -0.50486E-05  9336   0.793E-02    0.270E-02
DAV:   9    -0.444247549122E+02    0.31499E-05   -0.20644E-05  8568   0.787E-02    0.101E-02
DAV:  10    -0.444247553523E+02   -0.44005E-06   -0.26834E-06  9200   0.205E-02    0.216E-03
DAV:  11    -0.444247552651E+02    0.87148E-07   -0.35811E-07  9928   0.669E-03    0.104E-03
DAV:  12    -0.444247552870E+02   -0.21842E-07   -0.46137E-08  7160   0.266E-03    0.275E-04
DAV:  13    -0.444247552993E+02   -0.12296E-07   -0.51174E-09  4116   0.669E-04    0.143E-04
DAV:  14    -0.444247552990E+02    0.29104E-09   -0.10672E-09  4072   0.313E-04
  12 F= -.44424755E+02 E0= -.44424426E+02  d E =-.586701E-03  mag=     0.0000
 curvature:  -1.82 expect dE=-0.291E-02 dE for cont linesearch -0.415E-04
 ZBRENT: interpolating
 opt :   1.9996  next Energy=   -44.424794 (dE=-0.626E-03)
 bond charge predicted
       N       E                     dE             d eps       ncg     rms          rms(c)
DAV:   1    -0.444268536633E+02   -0.20984E-02   -0.50136E-02  9080   0.304E+00    0.498E-01
DAV:   2    -0.444299519778E+02   -0.30983E-02   -0.40436E-02  8648   0.195E+00    0.723E-01
DAV:   3    -0.444268215552E+02    0.31304E-02   -0.30110E-02  8768   0.211E+00    0.570E-01
DAV:   4    -0.444250087664E+02    0.18128E-02   -0.95534E-03  8644   0.133E+00    0.143E-01
DAV:   5    -0.444248331131E+02    0.17565E-03   -0.92262E-04  9280   0.308E-01    0.793E-02
DAV:   6    -0.444248064619E+02    0.26651E-04   -0.22134E-04  8584   0.266E-01    0.459E-02
DAV:   7    -0.444247905380E+02    0.15924E-04   -0.63218E-05  8676   0.106E-01    0.117E-02
DAV:   8    -0.444247905123E+02    0.25691E-07   -0.78959E-06  9512   0.426E-02    0.923E-03
DAV:   9    -0.444247895248E+02    0.98758E-06   -0.25100E-06  8784   0.239E-02    0.190E-03
DAV:  10    -0.444247894520E+02    0.72785E-07   -0.28880E-07  8268   0.462E-03    0.763E-04
DAV:  11    -0.444247894542E+02   -0.22192E-08   -0.35956E-08  7344   0.163E-03
  13 F= -.44424789E+02 E0= -.44424449E+02  d E =-.620856E-03  mag=    -0.0000
 curvature:  -1.71 expect dE=-0.168E-02 dE for cont linesearch -0.853E-06
 trial: gam= 1.82330 g(F)=  0.521E-04 g(S)=  0.928E-03 ort = 0.237E-04 (trialstep = 0.320E+00)
 search vector abs. value=  0.483E-02
 bond charge predicted
       N       E                     dE             d eps       ncg     rms          rms(c)
DAV:   1    -0.444275799760E+02   -0.27905E-02   -0.86051E-02  8788   0.292E+00    0.476E-01
DAV:   2    -0.444268510934E+02    0.72888E-03   -0.17255E-02  8560   0.129E+00    0.370E-01
DAV:   3    -0.444259456746E+02    0.90542E-03   -0.72282E-03  8628   0.988E-01    0.308E-01
DAV:   4    -0.444264852358E+02   -0.53956E-03   -0.78929E-03  8816   0.142E+00    0.447E-01
DAV:   5    -0.444251861247E+02    0.12991E-02   -0.39336E-03  9048   0.959E-01    0.130E-01
DAV:   6    -0.444250914069E+02    0.94718E-04   -0.59212E-04 10260   0.291E-01    0.253E-02
DAV:   7    -0.444250892686E+02    0.21383E-05   -0.61326E-05  8436   0.864E-02    0.154E-02
DAV:   8    -0.444250885999E+02    0.66861E-06   -0.89947E-06  8572   0.597E-02    0.113E-02
DAV:   9    -0.444250875873E+02    0.10127E-05   -0.25583E-06  9192   0.264E-02    0.233E-03
DAV:  10    -0.444250876342E+02   -0.46981E-07   -0.47004E-07  8412   0.503E-03    0.107E-03
DAV:  11    -0.444250876157E+02    0.18576E-07   -0.36554E-08  7136   0.235E-03    0.341E-04
DAV:  12    -0.444250876027E+02    0.12969E-07   -0.33084E-09  4116   0.644E-04    0.106E-04
DAV:  13    -0.444250875950E+02    0.77307E-08   -0.14014E-09  4108   0.396E-04
  14 F= -.44425088E+02 E0= -.44424770E+02  d E =-.298141E-03  mag=     0.0000
 trial-energy change:   -0.000298  1 .order   -0.000296   -0.000328   -0.000265
 step:   1.1168(harm=  1.6669)  dis= 0.00440  next Energy=   -44.425449 (dE=-0.660E-03)
 bond charge predicted
       N       E                     dE             d eps       ncg     rms          rms(c)
DAV:   1    -0.444411309294E+02   -0.16043E-01   -0.53491E-01  8808   0.727E+00    0.119E+00
DAV:   2    -0.444363181424E+02    0.48128E-02   -0.10796E-01  8616   0.321E+00    0.916E-01
DAV:   3    -0.444305636282E+02    0.57545E-02   -0.44439E-02  8632   0.241E+00    0.739E-01
DAV:   4    -0.444339626371E+02   -0.33990E-02   -0.47948E-02  8776   0.343E+00    0.109E+00
DAV:   5    -0.444259168659E+02    0.80458E-02   -0.23584E-02  9088   0.235E+00    0.303E-01
DAV:   6    -0.444254361198E+02    0.48075E-03   -0.34829E-03 10152   0.665E-01    0.616E-02
DAV:   7    -0.444254238258E+02    0.12294E-04   -0.34676E-04  8496   0.210E-01    0.410E-02
DAV:   8    -0.444254182888E+02    0.55371E-05   -0.60024E-05  8520   0.154E-01    0.275E-02
DAV:   9    -0.444254134921E+02    0.47967E-05   -0.15863E-05  9112   0.641E-02    0.568E-03
DAV:  10    -0.444254139922E+02   -0.50004E-06   -0.28103E-06  8352   0.120E-02    0.257E-03
DAV:  11    -0.444254139387E+02    0.53446E-07   -0.21601E-07  8768   0.573E-03    0.850E-04
DAV:  12    -0.444254139052E+02    0.33528E-07   -0.20052E-08  4576   0.191E-03    0.303E-04
DAV:  13    -0.444254138878E+02    0.17375E-07   -0.86855E-09  4144   0.100E-03    0.103E-04
DAV:  14    -0.444254138828E+02    0.50532E-08   -0.20597E-09  4128   0.385E-04
  15 F= -.44425414E+02 E0= -.44425130E+02  d E =-.624429E-03  mag=    -0.0000
 curvature:  -3.28 expect dE=-0.171E-02 dE for cont linesearch -0.300E-05
 trial: gam=-0.08511 g(F)=  0.199E-03 g(S)=  0.323E-03 ort =-0.665E-04 (trialstep = 0.479E+00)
 search vector abs. value=  0.568E-03
 bond charge predicted
       N       E                     dE             d eps       ncg     rms          rms(c)
DAV:   1    -0.444301042743E+02   -0.46904E-02   -0.48211E-02  8160   0.326E+00    0.717E-01
DAV:   2    -0.444375232319E+02   -0.74190E-02   -0.90730E-02  8624   0.286E+00    0.106E+00
DAV:   3    -0.444289342131E+02    0.85890E-02   -0.61974E-02  8712   0.289E+00    0.762E-01
DAV:   4    -0.444256624721E+02    0.32717E-02   -0.17692E-02  8576   0.174E+00    0.101E-01
DAV:   5    -0.444257162226E+02   -0.53750E-04   -0.11683E-03  8952   0.353E-01    0.135E-01
DAV:   6    -0.444256127747E+02    0.10345E-03   -0.38683E-04  8604   0.335E-01    0.516E-02
DAV:   7    -0.444255934397E+02    0.19335E-04   -0.92655E-05  8804   0.102E-01    0.150E-02
DAV:   8    -0.444255929164E+02    0.52329E-06   -0.10589E-05  9024   0.556E-02    0.108E-02
DAV:   9    -0.444255914605E+02    0.14559E-05   -0.40154E-06  8564   0.271E-02    0.248E-03
DAV:  10    -0.444255912575E+02    0.20299E-06   -0.35187E-07  8560   0.492E-03    0.105E-03
DAV:  11    -0.444255912206E+02    0.36885E-07   -0.55328E-08  6688   0.214E-03    0.329E-04
DAV:  12    -0.444255911965E+02    0.24116E-07   -0.73859E-09  4168   0.804E-04    0.214E-04
DAV:  13    -0.444255911907E+02    0.58353E-08   -0.27725E-09  4076   0.539E-04
  16 F= -.44425591E+02 E0= -.44425310E+02  d E =-.177308E-03  mag=    -0.0000
 trial-energy change:   -0.000177  1 .order   -0.000176   -0.000253   -0.000099
 step:   0.7653(harm=  0.7890)  dis= 0.00173  next Energy=   -44.425621 (dE=-0.207E-03)
 bond charge predicted
       N       E                     dE             d eps       ncg     rms          rms(c)
DAV:   1    -0.444272288864E+02   -0.16377E-02   -0.17156E-02  8168   0.195E+00    0.428E-01
DAV:   2    -0.444299159702E+02   -0.26871E-02   -0.32470E-02  8632   0.171E+00    0.640E-01
DAV:   3    -0.444269536167E+02    0.29624E-02   -0.22885E-02  8712   0.176E+00    0.485E-01
DAV:   4    -0.444256504296E+02    0.13032E-02   -0.66302E-03  8592   0.108E+00    0.598E-02
DAV:   5    -0.444256648241E+02   -0.14394E-04   -0.43014E-04  8680   0.202E-01    0.761E-02
DAV:   6    -0.444256330640E+02    0.31760E-04   -0.12809E-04  8560   0.191E-01    0.324E-02
DAV:   7    -0.444256251938E+02    0.78702E-05   -0.34466E-05  8752   0.647E-02    0.926E-03
DAV:   8    -0.444256249643E+02    0.22951E-06   -0.41631E-06  8984   0.341E-02    0.661E-03
DAV:   9    -0.444256242904E+02    0.67385E-06   -0.16056E-06  8536   0.168E-02    0.168E-03
DAV:  10    -0.444256241746E+02    0.11584E-06   -0.12895E-07  8408   0.310E-03    0.720E-04
DAV:  11    -0.444256241525E+02    0.22032E-07   -0.21818E-08  5080   0.137E-03    0.182E-04
DAV:  12    -0.444256241414E+02    0.11143E-07   -0.33885E-09  4064   0.525E-04    0.118E-04
DAV:  13    -0.444256241344E+02    0.69558E-08   -0.10794E-09  4016   0.297E-04
  17 F= -.44425624E+02 E0= -.44425344E+02  d E =-.210252E-03  mag=     0.0000
 curvature:  -0.42 expect dE=-0.508E-04 dE for cont linesearch -0.235E-06
 trial: gam= 0.20591 g(F)=  0.527E-04 g(S)=  0.674E-04 ort = 0.178E-04 (trialstep = 0.537E+00)
 search vector abs. value=  0.152E-03
 bond charge predicted
       N       E                     dE             d eps       ncg     rms          rms(c)
DAV:   1    -0.444257582683E+02   -0.13413E-03   -0.76799E-03  8736   0.200E+00    0.189E-01
DAV:   2    -0.444264877144E+02   -0.72945E-03   -0.84111E-03  8680   0.850E-01    0.295E-01
DAV:   3    -0.444260180646E+02    0.46965E-03   -0.51807E-03  8736   0.860E-01    0.237E-01
DAV:   4    -0.444256894816E+02    0.32858E-03   -0.14888E-03  8600   0.533E-01    0.412E-02
DAV:   5    -0.444256875022E+02    0.19794E-05   -0.11910E-04  9224   0.121E-01    0.415E-02
DAV:   6    -0.444256792043E+02    0.82980E-05   -0.60599E-05  8656   0.137E-01    0.221E-02
DAV:   7    -0.444256767313E+02    0.24729E-05   -0.13028E-05  8680   0.540E-02    0.955E-03
DAV:   8    -0.444256763725E+02    0.35881E-06   -0.28964E-06  8808   0.320E-02    0.386E-03
DAV:   9    -0.444256764982E+02   -0.12573E-06   -0.74391E-07  9416   0.102E-02    0.154E-03
DAV:  10    -0.444256765421E+02   -0.43859E-07   -0.11115E-07  8856   0.361E-03    0.620E-04
DAV:  11    -0.444256765689E+02   -0.26826E-07   -0.16466E-08  5016   0.139E-03    0.146E-04
DAV:  12    -0.444256765733E+02   -0.44092E-08   -0.18898E-09  4032   0.268E-04
  18 F= -.44425677E+02 E0= -.44425402E+02  d E =-.524389E-04  mag=     0.0000
 trial-energy change:   -0.000052  1 .order   -0.000052   -0.000066   -0.000038
 step:   1.2742(harm=  1.2742)  dis= 0.00178  next Energy=   -44.425703 (dE=-0.789E-04)
 bond charge predicted
       N       E                     dE             d eps       ncg     rms          rms(c)
DAV:   1    -0.444258569038E+02   -0.18033E-03   -0.14513E-02  8744   0.274E+00    0.260E-01
DAV:   2    -0.444272388410E+02   -0.13819E-02   -0.15900E-02  8680   0.117E+00    0.405E-01
DAV:   3    -0.444263461984E+02    0.89264E-03   -0.98007E-03  8736   0.118E+00    0.324E-01
DAV:   4    -0.444257284065E+02    0.61779E-03   -0.28010E-03  8600   0.737E-01    0.565E-02
DAV:   5    -0.444257238023E+02    0.46042E-05   -0.22289E-04  9224   0.164E-01    0.561E-02
DAV:   6    -0.444257089844E+02    0.14818E-04   -0.11258E-04  8640   0.187E-01    0.307E-02
DAV:   7    -0.444257038885E+02    0.50958E-05   -0.24666E-05  8680   0.748E-02    0.127E-02
DAV:   8    -0.444257032577E+02    0.63086E-06   -0.52657E-06  8824   0.430E-02    0.539E-03
DAV:   9    -0.444257033770E+02   -0.11937E-06   -0.13999E-06  9472   0.142E-02    0.208E-03
DAV:  10    -0.444257034301E+02   -0.53009E-07   -0.20417E-07  8960   0.487E-03    0.818E-04
DAV:  11    -0.444257034656E+02   -0.35514E-07   -0.31264E-08  6760   0.184E-03    0.203E-04
DAV:  12    -0.444257034729E+02   -0.73560E-08   -0.18469E-09  4120   0.338E-04
  19 F= -.44425703E+02 E0= -.44425437E+02  d E =-.793385E-04  mag=     0.0000
 curvature:  -0.78 expect dE=-0.147E-05 dE for cont linesearch -0.267E-08
 trial: gam= 0.04720 g(F)=  0.771E-06 g(S)=  0.111E-05 ort = 0.721E-06 (trialstep = 0.684E+00)
 search vector abs. value=  0.229E-05
 reached required accuracy - stopping structural energy minimisation
 writing wavefunctions
