  10  10   0   0
  0.1176744E+02  0.6815853E-09  0.6815853E-09  0.4992599E-09  0.5000000E-15
  1.000000000000000E-004
  CAR 
 unknown system                          
     24.25442386    -58.50314604  301      8.97148302      1.00000000
    -58.503  0.0000E+00  0.0000E+00  0.0000E+00  0.0000E+00
    -58.227  0.0000E+00  0.0000E+00  0.0000E+00  0.0000E+00
    -57.951  0.0000E+00  0.0000E+00  0.0000E+00  0.0000E+00
    -57.676  0.0000E+00  0.0000E+00  0.0000E+00  0.0000E+00
    -57.400  0.0000E+00  0.0000E+00  0.0000E+00  0.0000E+00
    -57.124  0.0000E+00  0.0000E+00  0.0000E+00  0.0000E+00
    -56.848  0.0000E+00  0.0000E+00  0.0000E+00  0.0000E+00
    -56.572  0.0000E+00  0.0000E+00  0.0000E+00  0.0000E+00
    -56.296  0.0000E+00  0.0000E+00  0.0000E+00  0.0000E+00
    -56.020  0.0000E+00  0.0000E+00  0.0000E+00  0.0000E+00
    -55.745  0.0000E+00  0.0000E+00  0.0000E+00  0.0000E+00
    -55.469  0.0000E+00  0.0000E+00  0.0000E+00  0.0000E+00
    -55.193  0.0000E+00  0.0000E+00  0.0000E+00  0.0000E+00
    -54.917  0.0000E+00  0.0000E+00  0.0000E+00  0.0000E+00
    -54.641  0.0000E+00  0.0000E+00  0.1000E+02  0.1000E+02
    -54.365  0.0000E+00  0.0000E+00  0.1500E+02  0.1500E+02
    -54.089  0.0000E+00  0.0000E+00  0.1800E+02  0.1800E+02
    -53.814  0.0000E+00  0.0000E+00  0.1800E+02  0.1800E+02
    -53.538  0.0000E+00  0.0000E+00  0.1800E+02  0.1800E+02
    -53.262  0.0000E+00  0.0000E+00  0.1800E+02  0.1800E+02
    -52.986  0.0000E+00  0.0000E+00  0.1800E+02  0.1800E+02
    -52.710  0.0000E+00  0.0000E+00  0.1800E+02  0.1800E+02
    -52.434  0.0000E+00  0.0000E+00  0.1800E+02  0.1800E+02
    -52.158  0.0000E+00  0.0000E+00  0.1800E+02  0.1800E+02
    -51.883  0.0000E+00  0.0000E+00  0.1800E+02  0.1800E+02
    -51.607  0.0000E+00  0.0000E+00  0.1800E+02  0.1800E+02
    -51.331  0.0000E+00  0.0000E+00  0.1800E+02  0.1800E+02
    -51.055  0.0000E+00  0.0000E+00  0.1800E+02  0.1800E+02
    -50.779  0.0000E+00  0.0000E+00  0.1800E+02  0.1800E+02
    -50.503  0.0000E+00  0.0000E+00  0.1800E+02  0.1800E+02
    -50.227  0.0000E+00  0.0000E+00  0.1800E+02  0.1800E+02
    -49.952  0.0000E+00  0.0000E+00  0.1800E+02  0.1800E+02
    -49.676  0.0000E+00  0.0000E+00  0.1800E+02  0.1800E+02
    -49.400  0.0000E+00  0.0000E+00  0.1800E+02  0.1800E+02
    -49.124  0.0000E+00  0.0000E+00  0.1800E+02  0.1800E+02
    -48.848  0.0000E+00  0.0000E+00  0.1800E+02  0.1800E+02
    -48.572  0.0000E+00  0.0000E+00  0.1800E+02  0.1800E+02
    -48.296  0.0000E+00  0.0000E+00  0.1800E+02  0.1800E+02
    -48.021  0.0000E+00  0.0000E+00  0.1800E+02  0.1800E+02
    -47.745  0.0000E+00  0.0000E+00  0.1800E+02  0.1800E+02
    -47.469  0.0000E+00  0.0000E+00  0.1800E+02  0.1800E+02
    -47.193  0.0000E+00  0.0000E+00  0.1800E+02  0.1800E+02
    -46.917  0.0000E+00  0.0000E+00  0.1800E+02  0.1800E+02
    -46.641  0.0000E+00  0.0000E+00  0.1800E+02  0.1800E+02
    -46.365  0.0000E+00  0.0000E+00  0.1800E+02  0.1800E+02
    -46.090  0.0000E+00  0.0000E+00  0.1800E+02  0.1800E+02
    -45.814  0.0000E+00  0.0000E+00  0.1800E+02  0.1800E+02
    -45.538  0.0000E+00  0.0000E+00  0.1800E+02  0.1800E+02
    -45.262  0.0000E+00  0.0000E+00  0.1800E+02  0.1800E+02
    -44.986  0.0000E+00  0.0000E+00  0.1800E+02  0.1800E+02
    -44.710  0.0000E+00  0.0000E+00  0.1800E+02  0.1800E+02
    -44.434  0.0000E+00  0.0000E+00  0.1800E+02  0.1800E+02
    -44.159  0.0000E+00  0.0000E+00  0.1800E+02  0.1800E+02
    -43.883  0.0000E+00  0.0000E+00  0.1800E+02  0.1800E+02
    -43.607  0.0000E+00  0.0000E+00  0.1800E+02  0.1800E+02
    -43.331  0.0000E+00  0.0000E+00  0.1800E+02  0.1800E+02
    -43.055  0.0000E+00  0.0000E+00  0.1800E+02  0.1800E+02
    -42.779  0.0000E+00  0.0000E+00  0.1800E+02  0.1800E+02
    -42.503  0.0000E+00  0.0000E+00  0.1800E+02  0.1800E+02
    -42.227  0.0000E+00  0.0000E+00  0.1800E+02  0.1800E+02
    -41.952  0.0000E+00  0.0000E+00  0.1800E+02  0.1800E+02
    -41.676  0.0000E+00  0.0000E+00  0.1800E+02  0.1800E+02
    -41.400  0.0000E+00  0.0000E+00  0.1800E+02  0.1800E+02
    -41.124  0.0000E+00  0.0000E+00  0.1800E+02  0.1800E+02
    -40.848  0.0000E+00  0.0000E+00  0.1800E+02  0.1800E+02
    -40.572  0.0000E+00  0.0000E+00  0.1800E+02  0.1800E+02
    -40.296  0.0000E+00  0.0000E+00  0.1800E+02  0.1800E+02
    -40.021  0.0000E+00  0.0000E+00  0.1800E+02  0.1800E+02
    -39.745  0.0000E+00  0.0000E+00  0.1800E+02  0.1800E+02
    -39.469  0.0000E+00  0.0000E+00  0.1800E+02  0.1800E+02
    -39.193  0.0000E+00  0.0000E+00  0.1800E+02  0.1800E+02
    -38.917  0.0000E+00  0.0000E+00  0.1800E+02  0.1800E+02
    -38.641  0.0000E+00  0.0000E+00  0.1800E+02  0.1800E+02
    -38.365  0.0000E+00  0.0000E+00  0.1800E+02  0.1800E+02
    -38.090  0.0000E+00  0.0000E+00  0.1800E+02  0.1800E+02
    -37.814  0.0000E+00  0.0000E+00  0.1800E+02  0.1800E+02
    -37.538  0.0000E+00  0.0000E+00  0.1800E+02  0.1800E+02
    -37.262  0.0000E+00  0.0000E+00  0.1800E+02  0.1800E+02
    -36.986  0.0000E+00  0.0000E+00  0.1800E+02  0.1800E+02
    -36.710  0.0000E+00  0.0000E+00  0.1800E+02  0.1800E+02
    -36.434  0.0000E+00  0.0000E+00  0.1800E+02  0.1800E+02
    -36.159  0.0000E+00  0.0000E+00  0.1800E+02  0.1800E+02
    -35.883  0.0000E+00  0.0000E+00  0.1800E+02  0.1800E+02
    -35.607  0.0000E+00  0.0000E+00  0.1800E+02  0.1800E+02
    -35.331  0.0000E+00  0.0000E+00  0.1800E+02  0.1800E+02
    -35.055  0.0000E+00  0.0000E+00  0.1800E+02  0.1800E+02
    -34.779  0.0000E+00  0.0000E+00  0.1800E+02  0.1800E+02
    -34.503  0.0000E+00  0.0000E+00  0.1800E+02  0.1800E+02
    -34.228  0.0000E+00  0.0000E+00  0.1800E+02  0.1800E+02
    -33.952  0.0000E+00  0.0000E+00  0.1800E+02  0.1800E+02
    -33.676  0.0000E+00  0.0000E+00  0.1800E+02  0.1800E+02
    -33.400  0.0000E+00  0.0000E+00  0.1800E+02  0.1800E+02
    -33.124  0.0000E+00  0.0000E+00  0.1800E+02  0.1800E+02
    -32.848  0.0000E+00  0.0000E+00  0.1800E+02  0.1800E+02
    -32.572  0.0000E+00  0.0000E+00  0.1800E+02  0.1800E+02
    -32.297  0.0000E+00  0.0000E+00  0.1800E+02  0.1800E+02
    -32.021  0.0000E+00  0.0000E+00  0.1800E+02  0.1800E+02
    -31.745  0.0000E+00  0.0000E+00  0.1800E+02  0.1800E+02
    -31.469  0.0000E+00  0.0000E+00  0.1800E+02  0.1800E+02
    -31.193  0.0000E+00  0.0000E+00  0.1800E+02  0.1800E+02
    -30.917  0.0000E+00  0.0000E+00  0.1800E+02  0.1800E+02
    -30.641  0.0000E+00  0.0000E+00  0.1800E+02  0.1800E+02
    -30.366  0.0000E+00  0.0000E+00  0.1800E+02  0.1800E+02
    -30.090  0.0000E+00  0.0000E+00  0.1800E+02  0.1800E+02
    -29.814  0.0000E+00  0.0000E+00  0.1800E+02  0.1800E+02
    -29.538  0.0000E+00  0.0000E+00  0.1800E+02  0.1800E+02
    -29.262  0.0000E+00  0.0000E+00  0.1800E+02  0.1800E+02
    -28.986  0.0000E+00  0.0000E+00  0.1800E+02  0.1800E+02
    -28.710  0.0000E+00  0.0000E+00  0.1800E+02  0.1800E+02
    -28.435  0.0000E+00  0.0000E+00  0.1800E+02  0.1800E+02
    -28.159  0.0000E+00  0.0000E+00  0.1800E+02  0.1800E+02
    -27.883  0.0000E+00  0.0000E+00  0.1800E+02  0.1800E+02
    -27.607  0.0000E+00  0.0000E+00  0.1800E+02  0.1800E+02
    -27.331  0.0000E+00  0.0000E+00  0.1800E+02  0.1800E+02
    -27.055  0.0000E+00  0.0000E+00  0.1800E+02  0.1800E+02
    -26.779  0.0000E+00  0.0000E+00  0.1800E+02  0.1800E+02
    -26.504  0.0000E+00  0.0000E+00  0.1800E+02  0.1800E+02
    -26.228  0.0000E+00  0.0000E+00  0.1800E+02  0.1800E+02
    -25.952  0.0000E+00  0.0000E+00  0.1800E+02  0.1800E+02
    -25.676  0.0000E+00  0.0000E+00  0.1800E+02  0.1800E+02
    -25.400  0.0000E+00  0.0000E+00  0.1800E+02  0.1800E+02
    -25.124  0.0000E+00  0.0000E+00  0.1800E+02  0.1800E+02
    -24.848  0.0000E+00  0.0000E+00  0.1800E+02  0.1800E+02
    -24.573  0.0000E+00  0.0000E+00  0.1800E+02  0.1800E+02
    -24.297  0.0000E+00  0.0000E+00  0.1800E+02  0.1800E+02
    -24.021  0.0000E+00  0.0000E+00  0.1800E+02  0.1800E+02
    -23.745  0.0000E+00  0.0000E+00  0.1800E+02  0.1800E+02
    -23.469  0.0000E+00  0.0000E+00  0.1800E+02  0.1800E+02
    -23.193  0.0000E+00  0.0000E+00  0.1800E+02  0.1800E+02
    -22.917  0.0000E+00  0.0000E+00  0.1800E+02  0.1800E+02
    -22.642  0.0000E+00  0.0000E+00  0.1800E+02  0.1800E+02
    -22.366  0.0000E+00  0.0000E+00  0.1800E+02  0.1800E+02
    -22.090  0.0000E+00  0.0000E+00  0.1800E+02  0.1800E+02
    -21.814  0.0000E+00  0.0000E+00  0.1800E+02  0.1800E+02
    -21.538  0.0000E+00  0.0000E+00  0.1800E+02  0.1800E+02
    -21.262  0.0000E+00  0.0000E+00  0.1800E+02  0.1800E+02
    -20.986  0.0000E+00  0.0000E+00  0.1800E+02  0.1800E+02
    -20.711  0.0000E+00  0.0000E+00  0.1800E+02  0.1800E+02
    -20.435  0.0000E+00  0.0000E+00  0.1800E+02  0.1800E+02
    -20.159  0.0000E+00  0.0000E+00  0.1800E+02  0.1800E+02
    -19.883  0.0000E+00  0.0000E+00  0.1800E+02  0.1800E+02
    -19.607  0.0000E+00  0.0000E+00  0.1800E+02  0.1800E+02
    -19.331  0.0000E+00  0.0000E+00  0.1800E+02  0.1800E+02
    -19.055  0.0000E+00  0.0000E+00  0.1800E+02  0.1800E+02
    -18.780  0.0000E+00  0.0000E+00  0.1800E+02  0.1800E+02
    -18.504  0.0000E+00  0.0000E+00  0.1800E+02  0.1800E+02
    -18.228  0.0000E+00  0.0000E+00  0.1800E+02  0.1800E+02
    -17.952  0.0000E+00  0.0000E+00  0.1800E+02  0.1800E+02
    -17.676  0.0000E+00  0.0000E+00  0.1800E+02  0.1800E+02
    -17.400  0.0000E+00  0.0000E+00  0.1800E+02  0.1800E+02
    -17.124  0.0000E+00  0.0000E+00  0.1800E+02  0.1800E+02
    -16.849  0.0000E+00  0.0000E+00  0.1800E+02  0.1800E+02
    -16.573  0.0000E+00  0.0000E+00  0.1800E+02  0.1800E+02
    -16.297  0.0000E+00  0.0000E+00  0.1800E+02  0.1800E+02
    -16.021  0.0000E+00  0.0000E+00  0.1800E+02  0.1800E+02
    -15.745  0.0000E+00  0.0000E+00  0.1800E+02  0.1800E+02
    -15.469  0.0000E+00  0.0000E+00  0.1800E+02  0.1800E+02
    -15.193  0.0000E+00  0.0000E+00  0.1800E+02  0.1800E+02
    -14.917  0.0000E+00  0.0000E+00  0.1800E+02  0.1800E+02
    -14.642  0.0000E+00  0.0000E+00  0.1800E+02  0.1800E+02
    -14.366  0.0000E+00  0.0000E+00  0.1800E+02  0.1800E+02
    -14.090  0.0000E+00  0.0000E+00  0.1800E+02  0.1800E+02
    -13.814  0.0000E+00  0.0000E+00  0.1800E+02  0.1800E+02
    -13.538  0.0000E+00  0.0000E+00  0.1800E+02  0.1800E+02
    -13.262  0.0000E+00  0.0000E+00  0.1800E+02  0.1800E+02
    -12.986  0.0000E+00  0.0000E+00  0.1800E+02  0.1800E+02
    -12.711  0.0000E+00  0.0000E+00  0.1800E+02  0.1800E+02
    -12.435  0.0000E+00  0.0000E+00  0.1800E+02  0.1800E+02
    -12.159  0.0000E+00  0.0000E+00  0.1800E+02  0.1800E+02
    -11.883  0.0000E+00  0.0000E+00  0.1800E+02  0.1800E+02
    -11.607  0.0000E+00  0.0000E+00  0.1800E+02  0.1800E+02
    -11.331  0.0000E+00  0.0000E+00  0.1800E+02  0.1800E+02
    -11.055  0.0000E+00  0.0000E+00  0.1800E+02  0.1800E+02
    -10.780  0.0000E+00  0.0000E+00  0.1800E+02  0.1800E+02
    -10.504  0.0000E+00  0.0000E+00  0.1800E+02  0.1800E+02
    -10.228  0.0000E+00  0.0000E+00  0.1800E+02  0.1800E+02
     -9.952  0.0000E+00  0.0000E+00  0.1800E+02  0.1800E+02
     -9.676  0.0000E+00  0.0000E+00  0.1800E+02  0.1800E+02
     -9.400  0.0000E+00  0.0000E+00  0.1800E+02  0.1800E+02
     -9.124  0.0000E+00  0.0000E+00  0.1800E+02  0.1800E+02
     -8.849  0.0000E+00  0.0000E+00  0.1800E+02  0.1800E+02
     -8.573  0.0000E+00  0.0000E+00  0.1800E+02  0.1800E+02
     -8.297  0.0000E+00  0.0000E+00  0.1800E+02  0.1800E+02
     -8.021  0.0000E+00  0.0000E+00  0.1800E+02  0.1800E+02
     -7.745  0.0000E+00  0.0000E+00  0.1800E+02  0.1800E+02
     -7.469  0.0000E+00  0.0000E+00  0.1800E+02  0.1800E+02
     -7.193  0.0000E+00  0.0000E+00  0.1800E+02  0.1800E+02
     -6.918  0.0000E+00  0.0000E+00  0.1800E+02  0.1800E+02
     -6.642  0.0000E+00  0.0000E+00  0.1800E+02  0.1800E+02
     -6.366  0.0000E+00  0.0000E+00  0.1800E+02  0.1800E+02
     -6.090  0.0000E+00  0.0000E+00  0.1800E+02  0.1800E+02
     -5.814  0.0000E+00  0.0000E+00  0.1800E+02  0.1800E+02
     -5.538  0.0000E+00  0.0000E+00  0.1800E+02  0.1800E+02
     -5.262  0.0000E+00  0.0000E+00  0.1800E+02  0.1800E+02
     -4.987  0.0000E+00  0.0000E+00  0.1800E+02  0.1800E+02
     -4.711  0.0000E+00  0.0000E+00  0.1800E+02  0.1800E+02
     -4.435  0.0000E+00  0.0000E+00  0.1800E+02  0.1800E+02
     -4.159  0.0000E+00  0.0000E+00  0.1800E+02  0.1800E+02
     -3.883  0.0000E+00  0.0000E+00  0.1800E+02  0.1800E+02
     -3.607  0.0000E+00  0.0000E+00  0.1800E+02  0.1800E+02
     -3.331  0.0000E+00  0.0000E+00  0.1800E+02  0.1800E+02
     -3.056  0.0000E+00  0.0000E+00  0.1800E+02  0.1800E+02
     -2.780  0.0000E+00  0.0000E+00  0.1800E+02  0.1800E+02
     -2.504  0.0000E+00  0.0000E+00  0.1800E+02  0.1800E+02
     -2.228  0.0000E+00  0.0000E+00  0.1800E+02  0.1800E+02
     -1.952  0.0000E+00  0.0000E+00  0.1800E+02  0.1800E+02
     -1.676  0.7068E-01  0.7068E-01  0.1800E+02  0.1800E+02
     -1.400  0.2458E+00  0.2458E+00  0.1805E+02  0.1805E+02
     -1.125  0.3580E+00  0.3580E+00  0.1813E+02  0.1813E+02
     -0.849  0.4162E+00  0.4162E+00  0.1824E+02  0.1824E+02
     -0.573  0.4301E+00  0.4301E+00  0.1836E+02  0.1836E+02
     -0.297  0.5326E+00  0.5326E+00  0.1849E+02  0.1849E+02
     -0.021  0.5884E+00  0.5884E+00  0.1864E+02  0.1864E+02
      0.255  0.7316E+00  0.7316E+00  0.1883E+02  0.1883E+02
      0.531  0.7241E+00  0.7241E+00  0.1903E+02  0.1903E+02
      0.806  0.6296E+00  0.6296E+00  0.1922E+02  0.1922E+02
      1.082  0.6885E+00  0.6885E+00  0.1940E+02  0.1940E+02
      1.358  0.7237E+00  0.7237E+00  0.1958E+02  0.1958E+02
      1.634  0.1043E+01  0.1043E+01  0.1981E+02  0.1981E+02
      1.910  0.1095E+01  0.1095E+01  0.2012E+02  0.2012E+02
      2.186  0.1133E+01  0.1133E+01  0.2044E+02  0.2044E+02
      2.462  0.1123E+01  0.1123E+01  0.2074E+02  0.2074E+02
      2.737  0.1005E+01  0.1005E+01  0.2103E+02  0.2103E+02
      3.013  0.1190E+01  0.1190E+01  0.2138E+02  0.2138E+02
      3.289  0.1255E+01  0.1255E+01  0.2167E+02  0.2167E+02
      3.565  0.1771E+01  0.1771E+01  0.2207E+02  0.2207E+02
      3.841  0.1616E+01  0.1616E+01  0.2255E+02  0.2255E+02
      4.117  0.1465E+01  0.1465E+01  0.2298E+02  0.2298E+02
      4.393  0.2114E+01  0.2114E+01  0.2349E+02  0.2349E+02
      4.668  0.2823E+01  0.2823E+01  0.2417E+02  0.2417E+02
      4.944  0.3278E+01  0.3278E+01  0.2487E+02  0.2487E+02
      5.220  0.5656E+01  0.5656E+01  0.2587E+02  0.2587E+02
      5.496  0.5784E+01  0.5784E+01  0.2731E+02  0.2731E+02
      5.772  0.9064E+01  0.9064E+01  0.2894E+02  0.2894E+02
      6.048  0.9464E+01  0.9464E+01  0.3114E+02  0.3114E+02
      6.324  0.1366E+02  0.1366E+02  0.3374E+02  0.3374E+02
      6.599  0.1531E+02  0.1531E+02  0.3624E+02  0.3624E+02
      6.875  0.7650E+01  0.7650E+01  0.3891E+02  0.3891E+02
      7.151  0.1475E+02  0.1475E+02  0.4136E+02  0.4136E+02
      7.427  0.1418E+02  0.1418E+02  0.4518E+02  0.4518E+02
      7.703  0.9534E+01  0.9534E+01  0.4784E+02  0.4784E+02
      7.979  0.8146E+01  0.8146E+01  0.5014E+02  0.5014E+02
      8.255  0.3656E+01  0.3656E+01  0.5190E+02  0.5190E+02
      8.530  0.3231E+01  0.3231E+01  0.5299E+02  0.5299E+02
      8.806  0.2006E+01  0.2006E+01  0.5361E+02  0.5361E+02
      9.082  0.2860E+01  0.2860E+01  0.5431E+02  0.5431E+02
      9.358  0.2171E+01  0.2171E+01  0.5502E+02  0.5502E+02
      9.634  0.1665E+01  0.1665E+01  0.5560E+02  0.5560E+02
      9.910  0.1613E+01  0.1613E+01  0.5602E+02  0.5602E+02
     10.186  0.1448E+01  0.1448E+01  0.5645E+02  0.5645E+02
     10.461  0.1156E+01  0.1156E+01  0.5681E+02  0.5681E+02
     10.737  0.9666E+00  0.9666E+00  0.5710E+02  0.5710E+02
     11.013  0.1050E+01  0.1050E+01  0.5737E+02  0.5737E+02
     11.289  0.7387E+00  0.7387E+00  0.5763E+02  0.5763E+02
     11.565  0.1356E+01  0.1356E+01  0.5789E+02  0.5789E+02
     11.841  0.1808E+01  0.1808E+01  0.5834E+02  0.5834E+02
     12.117  0.2118E+01  0.2118E+01  0.5886E+02  0.5886E+02
     12.393  0.2002E+01  0.2002E+01  0.5940E+02  0.5940E+02
     12.668  0.2107E+01  0.2107E+01  0.5998E+02  0.5998E+02
     12.944  0.1782E+01  0.1782E+01  0.6052E+02  0.6052E+02
     13.220  0.2025E+01  0.2025E+01  0.6101E+02  0.6101E+02
     13.496  0.1488E+01  0.1488E+01  0.6148E+02  0.6148E+02
     13.772  0.1686E+01  0.1686E+01  0.6192E+02  0.6192E+02
     14.048  0.1680E+01  0.1680E+01  0.6241E+02  0.6241E+02
     14.324  0.1507E+01  0.1507E+01  0.6285E+02  0.6285E+02
     14.599  0.1864E+01  0.1864E+01  0.6330E+02  0.6330E+02
     14.875  0.2323E+01  0.2323E+01  0.6390E+02  0.6390E+02
     15.151  0.1888E+01  0.1888E+01  0.6449E+02  0.6449E+02
     15.427  0.1760E+01  0.1760E+01  0.6500E+02  0.6500E+02
     15.703  0.1554E+01  0.1554E+01  0.6545E+02  0.6545E+02
     15.979  0.1895E+01  0.1895E+01  0.6593E+02  0.6593E+02
     16.255  0.1902E+01  0.1902E+01  0.6645E+02  0.6645E+02
     16.530  0.1949E+01  0.1949E+01  0.6698E+02  0.6698E+02
     16.806  0.2104E+01  0.2104E+01  0.6753E+02  0.6753E+02
     17.082  0.2050E+01  0.2050E+01  0.6809E+02  0.6809E+02
     17.358  0.2191E+01  0.2191E+01  0.6862E+02  0.6862E+02
     17.634  0.1916E+01  0.1916E+01  0.6923E+02  0.6923E+02
     17.910  0.1818E+01  0.1818E+01  0.6976E+02  0.6976E+02
     18.186  0.1806E+01  0.1806E+01  0.7025E+02  0.7025E+02
     18.461  0.1656E+01  0.1656E+01  0.7075E+02  0.7075E+02
     18.737  0.1166E+01  0.1166E+01  0.7114E+02  0.7114E+02
     19.013  0.9289E+00  0.9289E+00  0.7144E+02  0.7144E+02
     19.289  0.6849E+00  0.6849E+00  0.7166E+02  0.7166E+02
     19.565  0.4760E+00  0.4760E+00  0.7182E+02  0.7182E+02
     19.841  0.2964E+00  0.2964E+00  0.7192E+02  0.7192E+02
     20.117  0.1149E+00  0.1149E+00  0.7199E+02  0.7199E+02
     20.392  0.8205E-02  0.8205E-02  0.7200E+02  0.7200E+02
     20.668  0.0000E+00  0.0000E+00  0.7200E+02  0.7200E+02
     20.944  0.0000E+00  0.0000E+00  0.7200E+02  0.7200E+02
     21.220  0.0000E+00  0.0000E+00  0.7200E+02  0.7200E+02
     21.496  0.0000E+00  0.0000E+00  0.7200E+02  0.7200E+02
     21.772  0.0000E+00  0.0000E+00  0.7200E+02  0.7200E+02
     22.048  0.0000E+00  0.0000E+00  0.7200E+02  0.7200E+02
     22.323  0.0000E+00  0.0000E+00  0.7200E+02  0.7200E+02
     22.599  0.0000E+00  0.0000E+00  0.7200E+02  0.7200E+02
     22.875  0.0000E+00  0.0000E+00  0.7200E+02  0.7200E+02
     23.151  0.0000E+00  0.0000E+00  0.7200E+02  0.7200E+02
     23.427  0.0000E+00  0.0000E+00  0.7200E+02  0.7200E+02
     23.703  0.0000E+00  0.0000E+00  0.7200E+02  0.7200E+02
     23.979  0.0000E+00  0.0000E+00  0.7200E+02  0.7200E+02
     24.254  0.0000E+00  0.0000E+00  0.7200E+02  0.7200E+02
