 running on   24 total cores
 distrk:  each k-point on   24 cores,    1 groups
 distr:  one band on    6 cores,    4 groups
 using from now: INCAR     
 vasp.5.4.4.18Apr17-6-g9f103f2a35 (build Jan 03 2018 06:08:52) complex          
  
 POSCAR found :  2 types and      10 ions
 scaLAPACK will be used
 WARNING: for PREC=h ENMAX is automatically increase by 25 %
        this was not the case for versions prior to vasp.4.4
 WARNING: for PREC=h ENMAX is automatically increase by 25 %
        this was not the case for versions prior to vasp.4.4
 LDA part: xc-table for Pade appr. of Perdew
 POSCAR, INCAR and KPOINTS ok, starting setup
 FFT: planning ...
 WAVECAR not read
 entering main loop
       N       E                     dE             d eps       ncg     rms          rms(c)
DAV:   1     0.137000710388E+04    0.13700E+04   -0.62772E+04 16456   0.178E+03
DAV:   2     0.460423095151E+02   -0.13240E+04   -0.12662E+04 13896   0.575E+02
DAV:   3    -0.579635993405E+02   -0.10401E+03   -0.94826E+02 15568   0.178E+02
DAV:   4    -0.618404812468E+02   -0.38769E+01   -0.38436E+01 15640   0.333E+01
DAV:   5    -0.619297017580E+02   -0.89221E-01   -0.89205E-01 15336   0.495E+00    0.325E+01
DAV:   6    -0.744727608220E+02   -0.12543E+02   -0.15067E+02 15736   0.119E+02    0.394E+01
DAV:   7    -0.538597648652E+02    0.20613E+02   -0.56486E+01 15712   0.801E+01    0.479E+00
DAV:   8    -0.546176838186E+02   -0.75792E+00   -0.53062E+00 16808   0.285E+01    0.919E+00
DAV:   9    -0.541525588316E+02    0.46512E+00   -0.21082E+00 16144   0.197E+01    0.260E+00
DAV:  10    -0.541054112364E+02    0.47148E-01   -0.29469E-01 17296   0.566E+00    0.127E+00
DAV:  11    -0.541018641970E+02    0.35470E-02   -0.80586E-02 16024   0.511E+00    0.895E-01
DAV:  12    -0.540945263318E+02    0.73379E-02   -0.18700E-02 16360   0.216E+00    0.327E-01
DAV:  13    -0.540953592228E+02   -0.83289E-03   -0.10222E-02 17512   0.138E+00    0.478E-01
DAV:  14    -0.540938799590E+02    0.14793E-02   -0.44995E-03 16048   0.109E+00    0.102E-01
DAV:  15    -0.540938384340E+02    0.41525E-04   -0.46932E-04 16624   0.180E-01    0.357E-02
DAV:  16    -0.540938342752E+02    0.41588E-05   -0.58495E-05 17176   0.563E-02    0.125E-02
DAV:  17    -0.540938335783E+02    0.69690E-06   -0.60502E-06 15192   0.263E-02    0.480E-03
DAV:  18    -0.540938331640E+02    0.41427E-06   -0.92131E-07 15408   0.831E-03    0.267E-03
DAV:  19    -0.540938328317E+02    0.33224E-06   -0.18823E-07 15648   0.411E-03    0.692E-04
DAV:  20    -0.540938327098E+02    0.12191E-06   -0.22408E-08 11104   0.110E-03    0.312E-04
DAV:  21    -0.540938326967E+02    0.13100E-07   -0.41061E-09  7944   0.610E-04    0.966E-05
DAV:  22    -0.540938326973E+02   -0.54206E-09   -0.92820E-10  7680   0.252E-04
   1 F= -.54093833E+02 E0= -.54093746E+02  d E =-.540938E+02  mag=     0.0000
 curvature:   0.00 expect dE= 0.000E+00 dE for cont linesearch  0.000E+00
 trial: gam= 0.00000 g(F)=  0.305E+00 g(S)=  0.236E+01 ort = 0.000E+00 (trialstep = 0.100E+01)
 search vector abs. value=  0.267E+01
 bond charge predicted
       N       E                     dE             d eps       ncg     rms          rms(c)
DAV:   1    -0.173801450025E+03   -0.11971E+03   -0.13268E+03 14392   0.377E+02    0.898E+01
DAV:   2    -0.127358037128E+03    0.46443E+02   -0.95425E+02 15984   0.236E+02    0.732E+01
DAV:   3    -0.663894378473E+02    0.60969E+02   -0.33682E+02 15816   0.156E+02    0.336E+01
DAV:   4    -0.583528695073E+02    0.80366E+01   -0.46042E+01 16872   0.725E+01    0.208E+01
DAV:   5    -0.559067776270E+02    0.24461E+01   -0.21879E+01 16928   0.448E+01    0.922E+00
DAV:   6    -0.552953398353E+02    0.61144E+00   -0.20967E+00 17920   0.165E+01    0.708E+00
DAV:   7    -0.547932277391E+02    0.50211E+00   -0.20138E+00 16704   0.167E+01    0.328E+00
DAV:   8    -0.547365480505E+02    0.56680E-01   -0.52289E-01 15600   0.896E+00    0.296E+00
DAV:   9    -0.546866184786E+02    0.49930E-01   -0.20075E-01 15352   0.655E+00    0.946E-01
DAV:  10    -0.546797921160E+02    0.68264E-02   -0.34859E-02 16424   0.208E+00    0.312E-01
DAV:  11    -0.546793697671E+02    0.42235E-03   -0.59871E-03 15200   0.800E-01    0.103E-01
DAV:  12    -0.546793740004E+02   -0.42333E-05   -0.67900E-04 15360   0.345E-01    0.655E-02
DAV:  13    -0.546793555466E+02    0.18454E-04   -0.16373E-04 15968   0.177E-01    0.186E-02
DAV:  14    -0.546793568520E+02   -0.13054E-05   -0.21469E-05 16064   0.433E-02    0.652E-03
DAV:  15    -0.546793566815E+02    0.17052E-06   -0.33140E-06 16248   0.192E-02    0.378E-03
DAV:  16    -0.546793564529E+02    0.22862E-06   -0.46106E-07 15664   0.790E-03    0.862E-04
DAV:  17    -0.546793564556E+02   -0.26994E-08   -0.79751E-08 14960   0.190E-03
   2 F= -.54679356E+02 E0= -.54679184E+02  d E =-.585524E+00  mag=     0.0000
 trial-energy change:   -0.585524  1 .order   -0.699343   -2.670048    1.271361
 step:   0.6374(harm=  0.6774)  dis= 0.05211  next Energy=   -54.915288 (dE=-0.821E+00)
 bond charge predicted
       N       E                     dE             d eps       ncg     rms          rms(c)
DAV:   1    -0.748296964488E+02   -0.20150E+02   -0.17496E+02 15040   0.122E+02    0.460E+01
DAV:   2    -0.972488247871E+02   -0.22419E+02   -0.31149E+02 15152   0.169E+02    0.501E+01
DAV:   3    -0.551977404193E+02    0.42051E+02   -0.10878E+02 15520   0.102E+02    0.548E+00
DAV:   4    -0.552020305573E+02   -0.42901E-02   -0.64265E+00 17312   0.184E+01    0.676E+00
DAV:   5    -0.552364585071E+02   -0.34428E-01   -0.21953E+00 15736   0.170E+01    0.667E+00
DAV:   6    -0.549055110171E+02    0.33095E+00   -0.65887E-01 16520   0.108E+01    0.121E+00
DAV:   7    -0.549067204603E+02   -0.12094E-02   -0.11464E-01 17168   0.433E+00    0.998E-01
DAV:   8    -0.549008929819E+02    0.58275E-02   -0.30032E-02 16128   0.241E+00    0.304E-01
DAV:   9    -0.549008570915E+02    0.35890E-04   -0.55132E-03 16496   0.840E-01    0.236E-01
DAV:  10    -0.549006033608E+02    0.25373E-03   -0.20700E-03 15792   0.757E-01    0.107E-01
DAV:  11    -0.549005018809E+02    0.10148E-03   -0.34200E-04 17248   0.196E-01    0.211E-02
DAV:  12    -0.549004992748E+02    0.26061E-05   -0.35755E-05 15248   0.553E-02    0.780E-03
DAV:  13    -0.549004981077E+02    0.11671E-05   -0.38855E-06 15632   0.202E-02    0.226E-03
DAV:  14    -0.549004978654E+02    0.24229E-06   -0.51781E-07 15904   0.571E-03    0.118E-03
DAV:  15    -0.549004978176E+02    0.47778E-07   -0.12533E-07 14352   0.326E-03    0.559E-04
DAV:  16    -0.549004978394E+02   -0.21748E-07   -0.27645E-08 10696   0.157E-03    0.490E-04
DAV:  17    -0.549004978152E+02    0.24160E-07   -0.58313E-09  7992   0.842E-04    0.645E-05
DAV:  18    -0.549004978135E+02    0.16844E-08   -0.10914E-09  7712   0.209E-04
   3 F= -.54900498E+02 E0= -.54900226E+02  d E =-.806665E+00  mag=    -0.0000
 curvature:  -0.33 expect dE=-0.103E+00 dE for cont linesearch -0.142E-04
 trial: gam= 0.11964 g(F)=  0.991E-01 g(S)=  0.210E+00 ort =-0.107E-01 (trialstep = 0.927E+00)
 search vector abs. value=  0.344E+00
 bond charge predicted
       N       E                     dE             d eps       ncg     rms          rms(c)
DAV:   1    -0.563632454842E+02   -0.14627E+01   -0.44543E+01 15696   0.103E+02    0.142E+01
DAV:   2    -0.581948996599E+02   -0.18317E+01   -0.28776E+01 15664   0.485E+01    0.156E+01
DAV:   3    -0.553575948593E+02    0.28373E+01   -0.10129E+01 15568   0.306E+01    0.446E+00
DAV:   4    -0.557173703062E+02   -0.35978E+00   -0.22002E+00 16688   0.227E+01    0.107E+01
DAV:   5    -0.551797806836E+02    0.53759E+00   -0.30345E+00 15952   0.135E+01    0.283E+00
DAV:   6    -0.551306309217E+02    0.49150E-01   -0.26289E-01 18784   0.812E+00    0.984E-01
DAV:   7    -0.551270406584E+02    0.35903E-02   -0.50082E-02 16328   0.261E+00    0.426E-01
DAV:   8    -0.551267285189E+02    0.31214E-03   -0.72322E-03 15952   0.159E+00    0.319E-01
DAV:   9    -0.551261451536E+02    0.58337E-03   -0.22415E-03 16512   0.755E-01    0.694E-02
DAV:  10    -0.551262026945E+02   -0.57541E-04   -0.47657E-04 15328   0.166E-01    0.224E-02
DAV:  11    -0.551261992947E+02    0.33998E-05   -0.23143E-05 18624   0.561E-02    0.917E-03
DAV:  12    -0.551261984372E+02    0.85745E-06   -0.62302E-06 15560   0.280E-02    0.471E-03
DAV:  13    -0.551261981456E+02    0.29164E-06   -0.68287E-07 15888   0.111E-02    0.621E-04
DAV:  14    -0.551261980449E+02    0.10070E-06   -0.84460E-08 15240   0.235E-03    0.278E-04
DAV:  15    -0.551261980260E+02    0.18874E-07   -0.53685E-09  8160   0.759E-04    0.565E-05
DAV:  16    -0.551261980192E+02    0.68248E-08   -0.12341E-09  7896   0.245E-04
   4 F= -.55126198E+02 E0= -.55125945E+02  d E =-.225700E+00  mag=    -0.0000
 trial-energy change:   -0.225700  1 .order   -0.221207   -0.285211   -0.157204
 step:   1.7435(harm=  2.0665)  dis= 0.09120  next Energy=   -55.198412 (dE=-0.298E+00)
 bond charge predicted
       N       E                     dE             d eps       ncg     rms          rms(c)
DAV:   1    -0.562990078857E+02   -0.11728E+01   -0.36257E+01 16400   0.923E+01    0.127E+01
DAV:   2    -0.575951393148E+02   -0.12961E+01   -0.22429E+01 15560   0.436E+01    0.137E+01
DAV:   3    -0.554119369108E+02    0.21832E+01   -0.79544E+00 15472   0.268E+01    0.404E+00
DAV:   4    -0.555440995642E+02   -0.13216E+00   -0.13365E+00 16992   0.179E+01    0.662E+00
DAV:   5    -0.552299773129E+02    0.31412E+00   -0.75892E-01 15928   0.130E+01    0.168E+00
DAV:   6    -0.552245699529E+02    0.54074E-02   -0.19791E-01 19248   0.606E+00    0.119E+00
DAV:   7    -0.552166820693E+02    0.78879E-02   -0.40032E-02 15616   0.254E+00    0.249E-01
DAV:   8    -0.552170043780E+02   -0.32231E-03   -0.47043E-03 16768   0.110E+00    0.290E-01
DAV:   9    -0.552166251751E+02    0.37920E-03   -0.23497E-03 15792   0.772E-01    0.877E-02
DAV:  10    -0.552166192741E+02    0.59010E-05   -0.38062E-04 15688   0.279E-01    0.359E-02
DAV:  11    -0.552166137698E+02    0.55043E-05   -0.57758E-05 15880   0.115E-01    0.115E-02
DAV:  12    -0.552166122316E+02    0.15382E-05   -0.93110E-06 15792   0.428E-02    0.455E-03
DAV:  13    -0.552166119710E+02    0.26060E-06   -0.15300E-06 15648   0.156E-02    0.923E-04
DAV:  14    -0.552166118775E+02    0.93514E-07   -0.20139E-07 15624   0.430E-03    0.437E-04
DAV:  15    -0.552166118372E+02    0.40298E-07   -0.13944E-08  8776   0.115E-03    0.949E-05
DAV:  16    -0.552166118380E+02   -0.80763E-09   -0.31191E-09  7944   0.336E-04
   5 F= -.55216612E+02 E0= -.55216334E+02  d E =-.316114E+00  mag=    -0.0000
 curvature:  -1.06 expect dE=-0.437E-01 dE for cont linesearch -0.922E-02
 ZBRENT: extrapolating
 opt :   2.1316  next Energy=   -55.227215 (dE=-0.327E+00)
 bond charge predicted
       N       E                     dE             d eps       ncg     rms          rms(c)
DAV:   1    -0.555065132453E+02   -0.28990E+00   -0.86421E+00 16864   0.435E+01    0.623E+00
DAV:   2    -0.558067125178E+02   -0.30020E+00   -0.52852E+00 15584   0.214E+01    0.681E+00
DAV:   3    -0.552767222161E+02    0.52999E+00   -0.18582E+00 15480   0.132E+01    0.205E+00
DAV:   4    -0.553234408729E+02   -0.46719E-01   -0.34685E-01 16560   0.967E+00    0.355E+00
DAV:   5    -0.552323324561E+02    0.91108E-01   -0.18230E-01 15928   0.703E+00    0.840E-01
DAV:   6    -0.552320779531E+02    0.25450E-03   -0.52792E-02 19392   0.285E+00    0.696E-01
DAV:   7    -0.552293258143E+02    0.27521E-02   -0.11456E-02 15664   0.136E+00    0.109E-01
DAV:   8    -0.552294815478E+02   -0.15573E-03   -0.13138E-03 17376   0.555E-01    0.165E-01
DAV:   9    -0.552293360330E+02    0.14551E-03   -0.67697E-04 15840   0.448E-01    0.415E-02
DAV:  10    -0.552293358606E+02    0.17244E-06   -0.95163E-05 15896   0.121E-01    0.164E-02
DAV:  11    -0.552293345737E+02    0.12869E-05   -0.12776E-05 15496   0.490E-02    0.493E-03
DAV:  12    -0.552293339399E+02    0.63386E-06   -0.15828E-06 15376   0.148E-02    0.145E-03
DAV:  13    -0.552293338702E+02    0.69660E-07   -0.21982E-07 15688   0.563E-03    0.491E-04
DAV:  14    -0.552293338043E+02    0.65855E-07   -0.28058E-08 12064   0.165E-03    0.153E-04
DAV:  15    -0.552293337971E+02    0.72250E-08   -0.30768E-09  7808   0.475E-04
   6 F= -.55229334E+02 E0= -.55228484E+02  d E =-.328836E+00  mag=    -0.0000
 curvature:  -1.22 expect dE=-0.838E-01 dE for cont linesearch -0.731E-03
 ZBRENT: extrapolating
 opt :   2.2826  next Energy=   -55.230316 (dE=-0.330E+00)
 bond charge predicted
       N       E                     dE             d eps       ncg     rms          rms(c)
DAV:   1    -0.552732611646E+02   -0.43927E-01   -0.13267E+00 16400   0.169E+01    0.248E+00
DAV:   2    -0.553259758503E+02   -0.52715E-01   -0.85438E-01 15520   0.872E+00    0.284E+00
DAV:   3    -0.552454763670E+02    0.80499E-01   -0.30731E-01 15216   0.642E+00    0.150E+00
DAV:   4    -0.552388161951E+02    0.66602E-02   -0.83737E-02 15760   0.423E+00    0.985E-01
DAV:   5    -0.552315557955E+02    0.72604E-02   -0.24097E-02 18272   0.173E+00    0.446E-01
DAV:   6    -0.552304235112E+02    0.11323E-02   -0.65603E-03 16528   0.150E+00    0.199E-01
DAV:   7    -0.552301922252E+02    0.23129E-03   -0.13354E-03 15440   0.508E-01    0.612E-02
DAV:   8    -0.552302069347E+02   -0.14709E-04   -0.28100E-04 16368   0.284E-01    0.692E-02
DAV:   9    -0.552301811143E+02    0.25820E-04   -0.12458E-04 15840   0.180E-01    0.125E-02
DAV:  10    -0.552301814439E+02   -0.32960E-06   -0.14577E-05 15504   0.258E-02    0.406E-03
DAV:  11    -0.552301813008E+02    0.14314E-06   -0.10966E-06 16256   0.798E-03    0.176E-03
DAV:  12    -0.552301811821E+02    0.11864E-06   -0.11708E-07 16848   0.319E-03    0.327E-04
DAV:  13    -0.552301811575E+02    0.24662E-07   -0.12233E-08  8768   0.104E-03    0.113E-04
DAV:  14    -0.552301811363E+02    0.21184E-07   -0.23596E-09  7696   0.401E-04    0.575E-05
DAV:  15    -0.552301811306E+02    0.57153E-08   -0.67250E-10  7584   0.258E-04
   7 F= -.55230181E+02 E0= -.55228943E+02  d E =-.329683E+00  mag=    -0.0000
 curvature:  -1.64 expect dE=-0.147E+00 dE for cont linesearch -0.283E-04
 trial: gam= 0.40085 g(F)=  0.434E-01 g(S)=  0.458E-01 ort = 0.244E-02 (trialstep = 0.120E+01)
 search vector abs. value=  0.147E+00
 bond charge predicted
       N       E                     dE             d eps       ncg     rms          rms(c)
DAV:   1    -0.553041633332E+02   -0.73982E-01   -0.70063E+01 15296   0.190E+02    0.160E+01
DAV:   2    -0.597816004876E+02   -0.44774E+01   -0.64433E+01 16448   0.642E+01    0.195E+01
DAV:   3    -0.559199969779E+02    0.38616E+01   -0.15811E+01 15488   0.399E+01    0.935E+00
DAV:   4    -0.554506541783E+02    0.46934E+00   -0.27414E+00 16272   0.231E+01    0.399E+00
DAV:   5    -0.553033115110E+02    0.14734E+00   -0.44537E-01 15984   0.689E+00    0.125E+00
DAV:   6    -0.553493007490E+02   -0.45989E-01   -0.27035E-01 16560   0.883E+00    0.286E+00
DAV:   7    -0.552899575628E+02    0.59343E-01   -0.13305E-01 15872   0.618E+00    0.224E-01
DAV:   8    -0.552910560382E+02   -0.10985E-02   -0.16465E-02 15632   0.954E-01    0.344E-01
DAV:   9    -0.552905628397E+02    0.49320E-03   -0.22645E-03 15632   0.717E-01    0.150E-01
DAV:  10    -0.552904835468E+02    0.79293E-04   -0.98437E-04 18544   0.381E-01    0.894E-02
DAV:  11    -0.552904471207E+02    0.36426E-04   -0.23326E-04 15776   0.215E-01    0.107E-02
DAV:  12    -0.552904472526E+02   -0.13189E-06   -0.19402E-05 18016   0.416E-02    0.595E-03
DAV:  13    -0.552904476086E+02   -0.35603E-06   -0.24040E-06 16672   0.177E-02    0.275E-03
DAV:  14    -0.552904477735E+02   -0.16487E-06   -0.35149E-07 15744   0.689E-03    0.599E-04
DAV:  15    -0.552904477613E+02    0.12162E-07   -0.37636E-08 12624   0.187E-03    0.205E-04
DAV:  16    -0.552904477720E+02   -0.10681E-07   -0.38535E-09  8016   0.567E-04    0.697E-05
DAV:  17    -0.552904477701E+02    0.19136E-08   -0.10283E-09  7776   0.317E-04
   8 F= -.55290448E+02 E0= -.55289693E+02  d E =-.602666E-01  mag=    -0.0000
 trial-energy change:   -0.060267  1 .order   -0.060472   -0.108109   -0.012835
 step:   1.3624(harm=  1.3600)  dis= 0.04696  next Energy=   -55.291325 (dE=-0.611E-01)
 bond charge predicted
       N       E                     dE             d eps       ncg     rms          rms(c)
DAV:   1    -0.552903674857E+02    0.80286E-04   -0.12251E+00 15568   0.257E+01    0.221E+00
DAV:   2    -0.553787267011E+02   -0.88359E-01   -0.10944E+00 16160   0.868E+00    0.269E+00
DAV:   3    -0.552967382963E+02    0.81988E-01   -0.29076E-01 15488   0.538E+00    0.853E-01
DAV:   4    -0.552953686487E+02    0.13696E-02   -0.36638E-02 16816   0.257E+00    0.677E-01
DAV:   5    -0.552925013451E+02    0.28673E-02   -0.11920E-02 17472   0.133E+00    0.414E-01
DAV:   6    -0.552919609782E+02    0.54037E-03   -0.72875E-03 16512   0.149E+00    0.305E-01
DAV:   7    -0.552913984048E+02    0.56257E-03   -0.19401E-03 16064   0.697E-01    0.847E-02
DAV:   8    -0.552913718825E+02    0.26522E-04   -0.35620E-04 17936   0.298E-01    0.538E-02
DAV:   9    -0.552913541051E+02    0.17777E-04   -0.97376E-05 16016   0.140E-01    0.164E-02
DAV:  10    -0.552913540606E+02    0.44492E-07   -0.12078E-05 16112   0.342E-02    0.480E-03
DAV:  11    -0.552913545578E+02   -0.49718E-06   -0.13779E-06 15264   0.139E-02    0.125E-03
DAV:  12    -0.552913547525E+02   -0.19473E-06   -0.13118E-07 15760   0.396E-03    0.435E-04
DAV:  13    -0.552913548073E+02   -0.54733E-07   -0.14314E-08  8616   0.130E-03    0.141E-04
DAV:  14    -0.552913548239E+02   -0.16644E-07   -0.27308E-09  7864   0.375E-04    0.275E-05
DAV:  15    -0.552913548238E+02    0.12733E-09   -0.76858E-10  7608   0.184E-04
   9 F= -.55291355E+02 E0= -.55290727E+02  d E =-.611737E-01  mag=     0.0000
 curvature:  -1.10 expect dE=-0.722E-01 dE for cont linesearch -0.203E-04
 trial: gam= 0.95774 g(F)=  0.144E-01 g(S)=  0.510E-01 ort =-0.164E-02 (trialstep = 0.918E+00)
 search vector abs. value=  0.197E+00
 bond charge predicted
       N       E                     dE             d eps       ncg     rms          rms(c)
DAV:   1    -0.536332940301E+02    0.16581E+01   -0.58450E+01 20640   0.193E+02    0.767E+00
DAV:   2    -0.560768183216E+02   -0.24435E+01   -0.27308E+01 16496   0.366E+01    0.790E+00
DAV:   3    -0.554330320644E+02    0.64379E+00   -0.30595E+00 15712   0.191E+01    0.334E+00
DAV:   4    -0.554552010846E+02   -0.22169E-01   -0.74538E-01 15904   0.133E+01    0.389E+00
DAV:   5    -0.553411412105E+02    0.11406E+00   -0.32429E-01 16416   0.760E+00    0.132E+00
DAV:   6    -0.553628869404E+02   -0.21746E-01   -0.18794E-01 17888   0.660E+00    0.237E+00
DAV:   7    -0.553312002472E+02    0.31687E-01   -0.11341E-01 15952   0.417E+00    0.535E-01
DAV:   8    -0.553297807142E+02    0.14195E-02   -0.12352E-02 18640   0.147E+00    0.193E-01
DAV:   9    -0.553296376679E+02    0.14305E-03   -0.20229E-03 16448   0.524E-01    0.823E-02
DAV:  10    -0.553296441048E+02   -0.64368E-05   -0.33207E-04 15472   0.216E-01    0.279E-02
DAV:  11    -0.553296444108E+02   -0.30599E-06   -0.31424E-05 15896   0.609E-02    0.929E-03
DAV:  12    -0.553296434490E+02    0.96180E-06   -0.49085E-06 15872   0.189E-02    0.250E-03
DAV:  13    -0.553296432718E+02    0.17713E-06   -0.42341E-07 15944   0.595E-03    0.837E-04
DAV:  14    -0.553296431854E+02    0.86420E-07   -0.47998E-08 13472   0.214E-03    0.368E-04
DAV:  15    -0.553296431628E+02    0.22614E-07   -0.63290E-09  8240   0.912E-04    0.833E-05
DAV:  16    -0.553296431562E+02    0.66066E-08   -0.13464E-09  7808   0.298E-04
  10 F= -.55329643E+02 E0= -.55329551E+02  d E =-.382883E-01  mag=    -0.0000
 trial-energy change:   -0.038288  1 .order   -0.038249   -0.058522   -0.017976
 step:   1.3245(harm=  1.3245)  dis= 0.06034  next Energy=   -55.333589 (dE=-0.422E-01)
 bond charge predicted
       N       E                     dE             d eps       ncg     rms          rms(c)
DAV:   1    -0.549616545356E+02    0.36799E+00   -0.11048E+01 19536   0.858E+01    0.331E+00
DAV:   2    -0.554513987712E+02   -0.48974E+00   -0.55695E+00 15936   0.156E+01    0.315E+00
DAV:   3    -0.553579878928E+02    0.93411E-01   -0.59632E-01 16000   0.798E+00    0.161E+00
DAV:   4    -0.553596832593E+02   -0.16954E-02   -0.16950E-01 16144   0.531E+00    0.178E+00
DAV:   5    -0.553349167456E+02    0.24767E-01   -0.62184E-02 16272   0.347E+00    0.429E-01
DAV:   6    -0.553410414733E+02   -0.61247E-02   -0.35567E-02 18912   0.271E+00    0.108E+00
DAV:   7    -0.553333940628E+02    0.76474E-02   -0.22412E-02 16048   0.229E+00    0.717E-02
DAV:   8    -0.553335389917E+02   -0.14493E-03   -0.18178E-03 17760   0.403E-01    0.115E-01
DAV:   9    -0.553334734691E+02    0.65523E-04   -0.34822E-04 15536   0.350E-01    0.369E-02
DAV:  10    -0.553334713215E+02    0.21476E-05   -0.54986E-05 15744   0.778E-02    0.133E-02
DAV:  11    -0.553334716567E+02   -0.33518E-06   -0.57420E-06 16368   0.243E-02    0.382E-03
DAV:  12    -0.553334713741E+02    0.28255E-06   -0.98870E-07 15312   0.866E-03    0.835E-04
DAV:  13    -0.553334712647E+02    0.10938E-06   -0.57057E-08 14272   0.239E-03    0.458E-04
DAV:  14    -0.553334712271E+02    0.37675E-07   -0.80452E-09  8160   0.129E-03    0.811E-05
DAV:  15    -0.553334712157E+02    0.11401E-07   -0.18974E-09  7840   0.306E-04    0.357E-05
DAV:  16    -0.553334712145E+02    0.11423E-08   -0.44594E-10  7632   0.170E-04
  11 F= -.55333471E+02 E0= -.55333698E+02  d E =-.421164E-01  mag=    -0.0000
 curvature:  -2.04 expect dE=-0.378E-01 dE for cont linesearch -0.378E-04
 trial: gam=-0.02385 g(F)=  0.107E-01 g(S)=  0.775E-02 ort =-0.191E-02 (trialstep = 0.999E+00)
 search vector abs. value=  0.187E-01
 bond charge predicted
       N       E                     dE             d eps       ncg     rms          rms(c)
DAV:   1    -0.556001036355E+02   -0.26663E+00   -0.60393E+00 15312   0.517E+01    0.659E+00
DAV:   2    -0.561466716756E+02   -0.54657E+00   -0.71401E+00 15440   0.247E+01    0.800E+00
DAV:   3    -0.553809459944E+02    0.76573E+00   -0.27168E+00 15424   0.173E+01    0.274E+00
DAV:   4    -0.553593968348E+02    0.21549E-01   -0.33925E-01 16000   0.650E+00    0.128E+00
DAV:   5    -0.553508262010E+02    0.85706E-02   -0.39165E-02 18608   0.260E+00    0.993E-01
DAV:   6    -0.553455188746E+02    0.53073E-02   -0.33572E-02 16128   0.301E+00    0.527E-01
DAV:   7    -0.553437279423E+02    0.17909E-02   -0.68070E-03 16848   0.109E+00    0.100E-01
DAV:   8    -0.553437883080E+02   -0.60366E-04   -0.10166E-03 17296   0.531E-01    0.124E-01
DAV:   9    -0.553436685034E+02    0.11980E-03   -0.33185E-04 15856   0.325E-01    0.231E-02
DAV:  10    -0.553436667918E+02    0.17116E-05   -0.57759E-05 14960   0.527E-02    0.105E-02
DAV:  11    -0.553436653370E+02    0.14548E-05   -0.74595E-06 16528   0.250E-02    0.605E-03
DAV:  12    -0.553436646370E+02    0.70000E-06   -0.17508E-06 15040   0.133E-02    0.962E-04
DAV:  13    -0.553436645193E+02    0.11764E-06   -0.72235E-08 14608   0.273E-03    0.356E-04
DAV:  14    -0.553436644517E+02    0.67652E-07   -0.12425E-08  8512   0.106E-03    0.175E-04
DAV:  15    -0.553436644377E+02    0.14013E-07   -0.27119E-09  8112   0.486E-04    0.418E-05
DAV:  16    -0.553436644382E+02   -0.48749E-09   -0.53438E-10  7744   0.168E-04
  12 F= -.55343664E+02 E0= -.55343839E+02  d E =-.101932E-01  mag=     0.0000
 trial-energy change:   -0.010193  1 .order   -0.010153   -0.018521   -0.001785
 step:   1.1039(harm=  1.1055)  dis= 0.00805  next Energy=   -55.343758 (dE=-0.103E-01)
 bond charge predicted
       N       E                     dE             d eps       ncg     rms          rms(c)
DAV:   1    -0.553465745523E+02   -0.29101E-02   -0.67216E-02 15232   0.542E+00    0.692E-01
DAV:   2    -0.553527630914E+02   -0.61885E-02   -0.81834E-02 15584   0.260E+00    0.861E-01
DAV:   3    -0.553445059468E+02    0.82571E-02   -0.32410E-02 15504   0.191E+00    0.372E-01
DAV:   4    -0.553439247657E+02    0.58118E-03   -0.52903E-03 15648   0.886E-01    0.127E-01
DAV:   5    -0.553438322093E+02    0.92556E-04   -0.42512E-04 19200   0.255E-01    0.997E-02
DAV:   6    -0.553437820265E+02    0.50183E-04   -0.35896E-04 16224   0.309E-01    0.573E-02
DAV:   7    -0.553437592801E+02    0.22746E-04   -0.74637E-05 16400   0.124E-01    0.147E-02
DAV:   8    -0.553437586866E+02    0.59351E-06   -0.12636E-05 17040   0.597E-02    0.104E-02
DAV:   9    -0.553437574347E+02    0.12519E-05   -0.34119E-06 15856   0.281E-02    0.256E-03
DAV:  10    -0.553437572538E+02    0.18083E-06   -0.49200E-07 15616   0.604E-03    0.840E-04
DAV:  11    -0.553437571567E+02    0.97170E-07   -0.59322E-08 14144   0.207E-03    0.570E-04
DAV:  12    -0.553437571172E+02    0.39472E-07   -0.16016E-08  8056   0.129E-03    0.143E-04
DAV:  13    -0.553437571035E+02    0.13737E-07   -0.19355E-09  7648   0.407E-04    0.443E-05
DAV:  14    -0.553437571019E+02    0.15280E-08   -0.39474E-10  7432   0.161E-04
  13 F= -.55343757E+02 E0= -.55343924E+02  d E =-.102859E-01  mag=     0.0000
 curvature:  -0.56 expect dE=-0.655E-02 dE for cont linesearch -0.292E-09
 trial: gam= 0.63856 g(F)=  0.420E-02 g(S)=  0.755E-02 ort =-0.313E-05 (trialstep = 0.984E+00)
 search vector abs. value=  0.194E-01
 bond charge predicted
       N       E                     dE             d eps       ncg     rms          rms(c)
DAV:   1    -0.551968206900E+02    0.14694E+00   -0.46273E+00 15792   0.576E+01    0.306E+00
DAV:   2    -0.554839619585E+02   -0.28714E+00   -0.34057E+00 16368   0.136E+01    0.337E+00
DAV:   3    -0.553785894108E+02    0.10537E+00   -0.63849E-01 15568   0.821E+00    0.199E+00
DAV:   4    -0.553583095227E+02    0.20280E-01   -0.13151E-01 16208   0.530E+00    0.847E-01
DAV:   5    -0.553531729236E+02    0.51366E-02   -0.11241E-02 16688   0.126E+00    0.441E-01
DAV:   6    -0.553547328239E+02   -0.15599E-02   -0.11277E-02 16624   0.220E+00    0.676E-01
DAV:   7    -0.553512975184E+02    0.34353E-02   -0.62637E-03 16176   0.164E+00    0.817E-02
DAV:   8    -0.553513745607E+02   -0.77042E-04   -0.11903E-03 19344   0.347E-01    0.100E-01
DAV:   9    -0.553513154844E+02    0.59076E-04   -0.33203E-04 15680   0.250E-01    0.268E-02
DAV:  10    -0.553513132956E+02    0.21888E-05   -0.35472E-05 15856   0.695E-02    0.155E-02
DAV:  11    -0.553513126105E+02    0.68509E-06   -0.94986E-06 16336   0.317E-02    0.432E-03
DAV:  12    -0.553513127804E+02   -0.16988E-06   -0.94080E-07 15056   0.959E-03    0.543E-04
DAV:  13    -0.553513128775E+02   -0.97134E-07   -0.31300E-08 12464   0.140E-03    0.223E-04
DAV:  14    -0.553513129145E+02   -0.36969E-07   -0.52384E-09  8128   0.673E-04    0.547E-05
DAV:  15    -0.553513129249E+02   -0.10452E-07   -0.11700E-09  7760   0.233E-04    0.237E-05
DAV:  16    -0.553513129282E+02   -0.32633E-08   -0.32417E-10  7696   0.146E-04
  14 F= -.55351313E+02 E0= -.55351401E+02  d E =-.755583E-02  mag=     0.0000
 trial-energy change:   -0.007556  1 .order   -0.007581   -0.011567   -0.003595
 step:   1.4409(harm=  1.4283)  dis= 0.01454  next Energy=   -55.352144 (dE=-0.839E-02)
 bond charge predicted
       N       E                     dE             d eps       ncg     rms          rms(c)
DAV:   1    -0.553193013462E+02    0.32012E-01   -0.99054E-01 16032   0.266E+01    0.143E+00
DAV:   2    -0.553811986660E+02   -0.61897E-01   -0.72575E-01 16336   0.624E+00    0.157E+00
DAV:   3    -0.553572650392E+02    0.23934E-01   -0.13576E-01 15472   0.380E+00    0.876E-01
DAV:   4    -0.553536822187E+02    0.35828E-02   -0.27474E-02 16320   0.214E+00    0.399E-01
DAV:   5    -0.553525444977E+02    0.11377E-02   -0.22803E-03 16672   0.585E-01    0.207E-01
DAV:   6    -0.553528607177E+02   -0.31622E-03   -0.25231E-03 16640   0.939E-01    0.314E-01
DAV:   7    -0.553521498600E+02    0.71086E-03   -0.14982E-03 16768   0.710E-01    0.528E-02
DAV:   8    -0.553521502663E+02   -0.40631E-06   -0.24977E-04 18848   0.170E-01    0.338E-02
DAV:   9    -0.553521434707E+02    0.67956E-05   -0.62551E-05 15600   0.906E-02    0.138E-02
DAV:  10    -0.553521424795E+02    0.99122E-06   -0.55289E-06 15776   0.299E-02    0.449E-03
DAV:  11    -0.553521427213E+02   -0.24178E-06   -0.92177E-07 16256   0.103E-02    0.152E-03
DAV:  12    -0.553521428173E+02   -0.95981E-07   -0.12121E-07 15136   0.346E-03    0.214E-04
DAV:  13    -0.553521428527E+02   -0.35379E-07   -0.47636E-09  8160   0.669E-04    0.105E-04
DAV:  14    -0.553521428703E+02   -0.17604E-07   -0.13233E-09  7776   0.316E-04    0.264E-05
DAV:  15    -0.553521428727E+02   -0.24193E-08   -0.39835E-10  7648   0.123E-04
  15 F= -.55352143E+02 E0= -.55352187E+02  d E =-.838577E-02  mag=     0.0000
 curvature:  -1.18 expect dE=-0.459E-02 dE for cont linesearch -0.151E-09
 trial: gam= 0.31842 g(F)=  0.317E-02 g(S)=  0.734E-03 ort = 0.158E-05 (trialstep = 0.108E+01)
 search vector abs. value=  0.587E-02
 bond charge predicted
       N       E                     dE             d eps       ncg     rms          rms(c)
DAV:   1    -0.552775873577E+02    0.74556E-01   -0.19751E+00 19360   0.362E+01    0.739E-01
DAV:   2    -0.553575621476E+02   -0.79975E-01   -0.84150E-01 14112   0.514E+00    0.625E-01
DAV:   3    -0.553591591524E+02   -0.15970E-02   -0.47860E-02 17952   0.266E+00    0.681E-01
DAV:   4    -0.553565629917E+02    0.25962E-02   -0.14385E-02 16384   0.159E+00    0.319E-01
DAV:   5    -0.553559515360E+02    0.61146E-03   -0.33769E-03 19120   0.750E-01    0.241E-01
DAV:   6    -0.553559572487E+02   -0.57128E-05   -0.34242E-03 16400   0.103E+00    0.250E-01
DAV:   7    -0.553554938683E+02    0.46338E-03   -0.12992E-03 16256   0.579E-01    0.680E-02
DAV:   8    -0.553554742872E+02    0.19581E-04   -0.21335E-04 18656   0.199E-01    0.213E-02
DAV:   9    -0.553554744866E+02   -0.19941E-06   -0.31037E-05 15280   0.587E-02    0.842E-03
DAV:  10    -0.553554747232E+02   -0.23655E-06   -0.32575E-06 16016   0.164E-02    0.292E-03
DAV:  11    -0.553554746209E+02    0.10227E-06   -0.38298E-07 15776   0.589E-03    0.784E-04
DAV:  12    -0.553554745991E+02    0.21802E-07   -0.37393E-08 13216   0.213E-03    0.254E-04
DAV:  13    -0.553554745918E+02    0.73524E-08   -0.37439E-09  7936   0.677E-04
  16 F= -.55355475E+02 E0= -.55355518E+02  d E =-.333172E-02  mag=    -0.0000
 trial-energy change:   -0.003332  1 .order   -0.003330   -0.004197   -0.002464
 step:   2.6051(harm=  2.6051)  dis= 0.02023  next Energy=   -55.357225 (dE=-0.508E-02)
 bond charge predicted
       N       E                     dE             d eps       ncg     rms          rms(c)
DAV:   1    -0.551986741011E+02    0.15680E+00   -0.39792E+00 19328   0.513E+01    0.106E+00
DAV:   2    -0.553614892250E+02   -0.16282E+00   -0.17122E+00 14160   0.738E+00    0.902E-01
DAV:   3    -0.553646557124E+02   -0.31665E-02   -0.98436E-02 18432   0.382E+00    0.963E-01
DAV:   4    -0.553594607381E+02    0.51950E-02   -0.28935E-02 16368   0.223E+00    0.460E-01
DAV:   5    -0.553583095014E+02    0.11512E-02   -0.73775E-03 18944   0.112E+00    0.364E-01
DAV:   6    -0.553581086943E+02    0.20081E-03   -0.68137E-03 16352   0.147E+00    0.331E-01
DAV:   7    -0.553572913492E+02    0.81735E-03   -0.23843E-03 16992   0.783E-01    0.104E-01
DAV:   8    -0.553572413440E+02    0.50005E-04   -0.44628E-04 17872   0.298E-01    0.298E-02
DAV:   9    -0.553572421756E+02   -0.83160E-06   -0.65120E-05 15344   0.812E-02    0.121E-02
DAV:  10    -0.553572427197E+02   -0.54411E-06   -0.67017E-06 16128   0.231E-02    0.417E-03
DAV:  11    -0.553572426030E+02    0.11668E-06   -0.81925E-07 15648   0.815E-03    0.117E-03
DAV:  12    -0.553572425714E+02    0.31552E-07   -0.85278E-08 15664   0.312E-03    0.392E-04
DAV:  13    -0.553572425603E+02    0.11187E-07   -0.66863E-09  8176   0.924E-04    0.851E-05
DAV:  14    -0.553572425602E+02    0.98225E-10   -0.20841E-09  7872   0.365E-04
  17 F= -.55357243E+02 E0= -.55357297E+02  d E =-.509969E-02  mag=     0.0000
 curvature:  -1.96 expect dE=-0.316E-02 dE for cont linesearch -0.379E-07
 trial: gam= 0.42399 g(F)=  0.961E-03 g(S)=  0.654E-03 ort = 0.107E-04 (trialstep = 0.138E+01)
 search vector abs. value=  0.268E-02
 bond charge predicted
       N       E                     dE             d eps       ncg     rms          rms(c)
DAV:   1    -0.553098771413E+02    0.47365E-01   -0.12725E+00 19376   0.287E+01    0.591E-01
DAV:   2    -0.553605139196E+02   -0.50637E-01   -0.53358E-01 14272   0.399E+00    0.483E-01
DAV:   3    -0.553609901490E+02   -0.47623E-03   -0.27705E-02 17936   0.183E+00    0.477E-01
DAV:   4    -0.553597846421E+02    0.12055E-02   -0.74514E-03 15872   0.125E+00    0.268E-01
DAV:   5    -0.553592591770E+02    0.52547E-03   -0.18523E-03 17920   0.568E-01    0.166E-01
DAV:   6    -0.553594033870E+02   -0.14421E-03   -0.20050E-03 16544   0.774E-01    0.232E-01
DAV:   7    -0.553590113473E+02    0.39204E-03   -0.94485E-04 16976   0.543E-01    0.430E-02
DAV:   8    -0.553590077802E+02    0.35671E-05   -0.13387E-04 19184   0.128E-01    0.160E-02
DAV:   9    -0.553590079702E+02   -0.18999E-06   -0.20612E-05 15040   0.499E-02    0.726E-03
DAV:  10    -0.553590081583E+02   -0.18813E-06   -0.15293E-06 15952   0.124E-02    0.270E-03
DAV:  11    -0.553590083330E+02   -0.17468E-06   -0.27293E-07 15600   0.570E-03    0.782E-04
DAV:  12    -0.553590083428E+02   -0.97607E-08   -0.30486E-08 11920   0.219E-03
  18 F= -.55359008E+02 E0= -.55359074E+02  d E =-.176578E-02  mag=    -0.0000
 trial-energy change:   -0.001766  1 .order   -0.001762   -0.002237   -0.001286
 step:   3.1425(harm=  3.2498)  dis= 0.01239  next Energy=   -55.359837 (dE=-0.259E-02)
 bond charge predicted
       N       E                     dE             d eps       ncg     rms          rms(c)
DAV:   1    -0.552800031040E+02    0.79005E-01   -0.20675E+00 19392   0.365E+01    0.749E-01
DAV:   2    -0.553623364438E+02   -0.82333E-01   -0.86657E-01 14256   0.511E+00    0.623E-01
DAV:   3    -0.553632342172E+02   -0.89777E-03   -0.45810E-02 18416   0.239E+00    0.621E-01
DAV:   4    -0.553611150224E+02    0.21192E-02   -0.12024E-02 15936   0.161E+00    0.334E-01
DAV:   5    -0.553603087719E+02    0.80625E-03   -0.29430E-03 18096   0.717E-01    0.216E-01
DAV:   6    -0.553605195095E+02   -0.21074E-03   -0.33286E-03 16544   0.997E-01    0.293E-01
DAV:   7    -0.553598900702E+02    0.62944E-03   -0.15220E-03 17024   0.693E-01    0.558E-02
DAV:   8    -0.553598837056E+02    0.63646E-05   -0.22215E-04 19200   0.166E-01    0.203E-02
DAV:   9    -0.553598839072E+02   -0.20160E-06   -0.33415E-05 15088   0.632E-02    0.916E-03
DAV:  10    -0.553598841909E+02   -0.28369E-06   -0.24538E-06 16304   0.157E-02    0.345E-03
DAV:  11    -0.553598844320E+02   -0.24105E-06   -0.44806E-07 15552   0.720E-03    0.101E-03
DAV:  12    -0.553598844419E+02   -0.99062E-08   -0.51289E-08 13552   0.280E-03
  19 F= -.55359884E+02 E0= -.55359973E+02  d E =-.264188E-02  mag=    -0.0000
 curvature:  -2.68 expect dE=-0.268E-02 dE for cont linesearch -0.275E-05
 trial: gam= 0.58085 g(F)=  0.467E-03 g(S)=  0.533E-03 ort = 0.524E-04 (trialstep = 0.173E+01)
 search vector abs. value=  0.196E-02
 bond charge predicted
       N       E                     dE             d eps       ncg     rms          rms(c)
DAV:   1    -0.553283743886E+02    0.31510E-01   -0.10785E+00 16448   0.261E+01    0.149E+00
DAV:   2    -0.553929339723E+02   -0.64560E-01   -0.75450E-01 16416   0.644E+00    0.164E+00
DAV:   3    -0.553663788489E+02    0.26555E-01   -0.14114E-01 15632   0.454E+00    0.925E-01
DAV:   4    -0.553628205491E+02    0.35583E-02   -0.35654E-02 15888   0.250E+00    0.443E-01
DAV:   5    -0.553610560101E+02    0.17645E-02   -0.35027E-03 17056   0.799E-01    0.193E-01
DAV:   6    -0.553616997932E+02   -0.64378E-03   -0.44944E-03 16672   0.105E+00    0.380E-01
DAV:   7    -0.553607433627E+02    0.95643E-03   -0.27078E-03 16400   0.796E-01    0.688E-02
DAV:   8    -0.553607274067E+02    0.15956E-04   -0.27232E-04 19472   0.192E-01    0.305E-02
DAV:   9    -0.553607228085E+02    0.45982E-05   -0.68472E-05 15840   0.897E-02    0.169E-02
DAV:  10    -0.553607211154E+02    0.16931E-05   -0.83358E-06 15760   0.313E-02    0.399E-03
DAV:  11    -0.553607208574E+02    0.25806E-06   -0.82363E-07 15312   0.935E-03    0.159E-03
DAV:  12    -0.553607207604E+02    0.97007E-07   -0.10161E-07 15128   0.299E-03    0.274E-04
DAV:  13    -0.553607207151E+02    0.45289E-07   -0.58431E-09  8256   0.690E-04    0.135E-04
DAV:  14    -0.553607206973E+02    0.17815E-07   -0.19382E-09  7856   0.426E-04    0.416E-05
DAV:  15    -0.553607206954E+02    0.18335E-08   -0.49137E-10  7600   0.170E-04
  20 F= -.55360721E+02 E0= -.55360794E+02  d E =-.836254E-03  mag=     0.0000
 trial-energy change:   -0.000836  1 .order   -0.000825   -0.001786    0.000135
 step:   1.6153(harm=  1.6116)  dis= 0.00716  next Energy=   -55.360725 (dE=-0.841E-03)
 bond charge predicted
       N       E                     dE             d eps       ncg     rms          rms(c)
DAV:   1    -0.553605735339E+02    0.14716E-03   -0.50573E-03 16320   0.178E+00    0.101E-01
DAV:   2    -0.553608692393E+02   -0.29571E-03   -0.35415E-03 16448   0.437E-01    0.112E-01
DAV:   3    -0.553607527928E+02    0.11645E-03   -0.67378E-04 15664   0.298E-01    0.652E-02
DAV:   4    -0.553607336219E+02    0.19171E-04   -0.16700E-04 16176   0.175E-01    0.300E-02
DAV:   5    -0.553607261853E+02    0.74366E-05   -0.17042E-05 17168   0.544E-02    0.153E-02
DAV:   6    -0.553607283506E+02   -0.21653E-05   -0.20852E-05 16496   0.726E-02    0.239E-02
DAV:   7    -0.553607249539E+02    0.33967E-05   -0.11515E-05 16816   0.495E-02    0.619E-03
DAV:   8    -0.553607247711E+02    0.18274E-06   -0.14008E-06 19440   0.154E-02    0.184E-03
DAV:   9    -0.553607248241E+02   -0.52965E-07   -0.35362E-07 15744   0.569E-03    0.124E-03
DAV:  10    -0.553607248347E+02   -0.10568E-07   -0.45388E-08 12616   0.231E-03    0.293E-04
DAV:  11    -0.553607248526E+02   -0.17968E-07   -0.40897E-09  7552   0.719E-04    0.114E-04
DAV:  12    -0.553607248578E+02   -0.51477E-08   -0.69725E-10  7392   0.245E-04
  21 F= -.55360725E+02 E0= -.55360800E+02  d E =-.840416E-03  mag=     0.0000
 curvature:  -1.53 expect dE=-0.774E-03 dE for cont linesearch -0.251E-08
 trial: gam= 0.54327 g(F)=  0.126E-03 g(S)=  0.378E-03 ort =-0.179E-05 (trialstep = 0.171E+01)
 search vector abs. value=  0.108E-02
 bond charge predicted
       N       E                     dE             d eps       ncg     rms          rms(c)
DAV:   1    -0.553795470409E+02   -0.18822E-01   -0.73374E-01 15856   0.186E+01    0.209E+00
DAV:   2    -0.554429144417E+02   -0.63367E-01   -0.83278E-01 15664   0.793E+00    0.264E+00
DAV:   3    -0.553690206822E+02    0.73894E-01   -0.31810E-01 15472   0.557E+00    0.118E+00
DAV:   4    -0.553621580200E+02    0.68627E-02   -0.50111E-02 16352   0.294E+00    0.386E-01
DAV:   5    -0.553610149002E+02    0.11431E-02   -0.30349E-03 16176   0.565E-01    0.181E-01
DAV:   6    -0.553612662796E+02   -0.25138E-03   -0.20654E-03 16256   0.877E-01    0.268E-01
DAV:   7    -0.553607389222E+02    0.52736E-03   -0.98480E-04 15920   0.681E-01    0.263E-02
DAV:   8    -0.553607634437E+02   -0.24522E-04   -0.19107E-04 19552   0.160E-01    0.574E-02
DAV:   9    -0.553607433066E+02    0.20137E-04   -0.70687E-05 15920   0.128E-01    0.922E-03
DAV:  10    -0.553607435674E+02   -0.26085E-06   -0.97986E-06 16288   0.303E-02    0.639E-03
DAV:  11    -0.553607436634E+02   -0.96014E-07   -0.17158E-06 15840   0.164E-02    0.170E-03
DAV:  12    -0.553607438311E+02   -0.16768E-06   -0.13230E-07 14336   0.423E-03    0.713E-04
DAV:  13    -0.553607438894E+02   -0.58284E-07   -0.20016E-08  8816   0.136E-03    0.126E-04
DAV:  14    -0.553607439224E+02   -0.32964E-07   -0.34085E-09  7824   0.449E-04    0.548E-05
DAV:  15    -0.553607439224E+02   -0.50932E-10   -0.68898E-10  7600   0.213E-04
  22 F= -.55360744E+02 E0= -.55360803E+02  d E =-.190646E-04  mag=     0.0000
 trial-energy change:   -0.000019  1 .order   -0.000017   -0.000861    0.000826
 step:   0.8753(harm=  0.8725)  dis= 0.00269  next Energy=   -55.360945 (dE=-0.221E-03)
 bond charge predicted
       N       E                     dE             d eps       ncg     rms          rms(c)
DAV:   1    -0.553654877537E+02   -0.47438E-02   -0.17391E-01 15984   0.907E+00    0.103E+00
DAV:   2    -0.553808443258E+02   -0.15357E-01   -0.19584E-01 15680   0.387E+00    0.128E+00
DAV:   3    -0.553625078963E+02    0.18336E-01   -0.73504E-02 15536   0.272E+00    0.527E-01
DAV:   4    -0.553613053976E+02    0.12025E-02   -0.10889E-02 16368   0.123E+00    0.188E-01
DAV:   5    -0.553610332303E+02    0.27217E-03   -0.66373E-04 18272   0.271E-01    0.992E-02
DAV:   6    -0.553610816736E+02   -0.48443E-04   -0.68637E-04 16384   0.404E-01    0.138E-01
DAV:   7    -0.553609474467E+02    0.13423E-03   -0.31530E-04 16512   0.273E-01    0.151E-02
DAV:   8    -0.553609513240E+02   -0.38773E-05   -0.39346E-05 19168   0.859E-02    0.258E-02
DAV:   9    -0.553609461593E+02    0.51646E-05   -0.13058E-05 15936   0.654E-02    0.398E-03
DAV:  10    -0.553609459984E+02    0.16092E-06   -0.22586E-06 15456   0.125E-02    0.260E-03
DAV:  11    -0.553609457877E+02    0.21073E-06   -0.30787E-07 16080   0.594E-03    0.103E-03
DAV:  12    -0.553609457027E+02    0.85034E-07   -0.40838E-08 13008   0.239E-03    0.218E-04
DAV:  13    -0.553609456865E+02    0.16189E-07   -0.32768E-09  7872   0.649E-04    0.665E-05
DAV:  14    -0.553609456747E+02    0.11729E-07   -0.67611E-10  7648   0.227E-04    0.238E-05
DAV:  15    -0.553609456724E+02    0.23574E-08   -0.16263E-10  7520   0.101E-04
  23 F= -.55360946E+02 E0= -.55361014E+02  d E =-.220815E-03  mag=     0.0000
 curvature:  -0.94 expect dE=-0.112E-03 dE for cont linesearch -0.168E-08
 trial: gam= 0.22669 g(F)=  0.531E-04 g(S)=  0.664E-04 ort =-0.139E-05 (trialstep = 0.154E+01)
 search vector abs. value=  0.174E-03
 bond charge predicted
       N       E                     dE             d eps       ncg     rms          rms(c)
DAV:   1    -0.553574837757E+02    0.34619E-02   -0.91478E-02 19696   0.782E+00    0.211E-01
DAV:   2    -0.553613141640E+02   -0.38304E-02   -0.42261E-02 14464   0.120E+00    0.167E-01
DAV:   3    -0.553612402120E+02    0.73952E-04   -0.23079E-03 16560   0.549E-01    0.146E-01
DAV:   4    -0.553611803814E+02    0.59831E-04   -0.95611E-04 16448   0.432E-01    0.123E-01
DAV:   5    -0.553610560285E+02    0.12435E-03   -0.33286E-04 17520   0.251E-01    0.350E-02
DAV:   6    -0.553610859920E+02   -0.29964E-04   -0.20848E-04 18448   0.200E-01    0.773E-02
DAV:   7    -0.553610441881E+02    0.41804E-04   -0.12399E-04 16064   0.165E-01    0.752E-03
DAV:   8    -0.553610451668E+02   -0.97870E-06   -0.12156E-05 19056   0.373E-02    0.101E-02
DAV:   9    -0.553610446119E+02    0.55490E-06   -0.28155E-06 15792   0.256E-02    0.275E-03
DAV:  10    -0.553610446257E+02   -0.13821E-07   -0.36010E-07 16736   0.536E-03    0.963E-04
DAV:  11    -0.553610446024E+02    0.23352E-07   -0.45499E-08 12368   0.265E-03    0.347E-04
DAV:  12    -0.553610445947E+02    0.76616E-08   -0.52943E-09  7744   0.101E-03
  24 F= -.55361045E+02 E0= -.55361115E+02  d E =-.989223E-04  mag=    -0.0000
 trial-energy change:   -0.000099  1 .order   -0.000108   -0.000184   -0.000032
 step:   2.1752(harm=  1.8641)  dis= 0.00203  next Energy=   -55.361050 (dE=-0.105E-03)
 bond charge predicted
       N       E                     dE             d eps       ncg     rms          rms(c)
DAV:   1    -0.553604380671E+02    0.60654E-03   -0.15359E-02 19632   0.320E+00    0.864E-02
DAV:   2    -0.553610811389E+02   -0.64307E-03   -0.70822E-03 14448   0.490E-01    0.680E-02
DAV:   3    -0.553610679233E+02    0.13216E-04   -0.38603E-04 16976   0.222E-01    0.592E-02
DAV:   4    -0.553610579797E+02    0.99436E-05   -0.15738E-04 16064   0.175E-01    0.506E-02
DAV:   5    -0.553610371978E+02    0.20782E-04   -0.56185E-05 17376   0.103E-01    0.144E-02
DAV:   6    -0.553610420319E+02   -0.48340E-05   -0.34473E-05 18608   0.817E-02    0.315E-02
DAV:   7    -0.553610350366E+02    0.69953E-05   -0.20442E-05 16112   0.671E-02    0.306E-03
DAV:   8    -0.553610351876E+02   -0.15096E-06   -0.20095E-06 19024   0.150E-02    0.405E-03
DAV:   9    -0.553610350831E+02    0.10447E-06   -0.46288E-07 15824   0.103E-02    0.113E-03
DAV:  10    -0.553610350772E+02    0.58426E-08   -0.57990E-08 13104   0.219E-03
  25 F= -.55361035E+02 E0= -.55361106E+02  d E =-.894049E-04  mag=     0.0000
 curvature:  -0.08 expect dE=-0.237E-05 dE for cont linesearch -0.181E-06
 trial: gam= 0.00000 g(F)=  0.102E-04 g(S)=  0.186E-04 ort =-0.196E-04 (trialstep = 0.167E+01)
 search vector abs. value=  0.288E-04
 reached required accuracy - stopping structural energy minimisation
 writing wavefunctions
