   6   6   0   0
  0.1174213E+02  0.4502072E-09  0.4502072E-09  0.4289070E-09  0.5000000E-15
  1.000000000000000E-004
  CAR 
 unknown system                          
     25.84007940    -58.77836145  301      8.57970199      1.00000000
    -58.778  0.0000E+00  0.0000E+00  0.0000E+00  0.0000E+00
    -58.496  0.0000E+00  0.0000E+00  0.0000E+00  0.0000E+00
    -58.214  0.0000E+00  0.0000E+00  0.0000E+00  0.0000E+00
    -57.932  0.0000E+00  0.0000E+00  0.0000E+00  0.0000E+00
    -57.650  0.0000E+00  0.0000E+00  0.0000E+00  0.0000E+00
    -57.368  0.0000E+00  0.0000E+00  0.0000E+00  0.0000E+00
    -57.086  0.0000E+00  0.0000E+00  0.0000E+00  0.0000E+00
    -56.804  0.0000E+00  0.0000E+00  0.0000E+00  0.0000E+00
    -56.522  0.0000E+00  0.0000E+00  0.0000E+00  0.0000E+00
    -56.240  0.0000E+00  0.0000E+00  0.0000E+00  0.0000E+00
    -55.958  0.0000E+00  0.0000E+00  0.0000E+00  0.0000E+00
    -55.676  0.0000E+00  0.0000E+00  0.0000E+00  0.0000E+00
    -55.394  0.0000E+00  0.0000E+00  0.0000E+00  0.0000E+00
    -55.112  0.0000E+00  0.0000E+00  0.0000E+00  0.0000E+00
    -54.830  0.0000E+00  0.0000E+00  0.3000E+01  0.3000E+01
    -54.547  0.0000E+00  0.0000E+00  0.1200E+02  0.1200E+02
    -54.265  0.0000E+00  0.0000E+00  0.1200E+02  0.1200E+02
    -53.983  0.0000E+00  0.0000E+00  0.1200E+02  0.1200E+02
    -53.701  0.0000E+00  0.0000E+00  0.1200E+02  0.1200E+02
    -53.419  0.0000E+00  0.0000E+00  0.1200E+02  0.1200E+02
    -53.137  0.0000E+00  0.0000E+00  0.1200E+02  0.1200E+02
    -52.855  0.0000E+00  0.0000E+00  0.1200E+02  0.1200E+02
    -52.573  0.0000E+00  0.0000E+00  0.1200E+02  0.1200E+02
    -52.291  0.0000E+00  0.0000E+00  0.1200E+02  0.1200E+02
    -52.009  0.0000E+00  0.0000E+00  0.1200E+02  0.1200E+02
    -51.727  0.0000E+00  0.0000E+00  0.1200E+02  0.1200E+02
    -51.445  0.0000E+00  0.0000E+00  0.1200E+02  0.1200E+02
    -51.163  0.0000E+00  0.0000E+00  0.1200E+02  0.1200E+02
    -50.881  0.0000E+00  0.0000E+00  0.1200E+02  0.1200E+02
    -50.599  0.0000E+00  0.0000E+00  0.1200E+02  0.1200E+02
    -50.317  0.0000E+00  0.0000E+00  0.1200E+02  0.1200E+02
    -50.034  0.0000E+00  0.0000E+00  0.1200E+02  0.1200E+02
    -49.752  0.0000E+00  0.0000E+00  0.1200E+02  0.1200E+02
    -49.470  0.0000E+00  0.0000E+00  0.1200E+02  0.1200E+02
    -49.188  0.0000E+00  0.0000E+00  0.1200E+02  0.1200E+02
    -48.906  0.0000E+00  0.0000E+00  0.1200E+02  0.1200E+02
    -48.624  0.0000E+00  0.0000E+00  0.1200E+02  0.1200E+02
    -48.342  0.0000E+00  0.0000E+00  0.1200E+02  0.1200E+02
    -48.060  0.0000E+00  0.0000E+00  0.1200E+02  0.1200E+02
    -47.778  0.0000E+00  0.0000E+00  0.1200E+02  0.1200E+02
    -47.496  0.0000E+00  0.0000E+00  0.1200E+02  0.1200E+02
    -47.214  0.0000E+00  0.0000E+00  0.1200E+02  0.1200E+02
    -46.932  0.0000E+00  0.0000E+00  0.1200E+02  0.1200E+02
    -46.650  0.0000E+00  0.0000E+00  0.1200E+02  0.1200E+02
    -46.368  0.0000E+00  0.0000E+00  0.1200E+02  0.1200E+02
    -46.086  0.0000E+00  0.0000E+00  0.1200E+02  0.1200E+02
    -45.804  0.0000E+00  0.0000E+00  0.1200E+02  0.1200E+02
    -45.521  0.0000E+00  0.0000E+00  0.1200E+02  0.1200E+02
    -45.239  0.0000E+00  0.0000E+00  0.1200E+02  0.1200E+02
    -44.957  0.0000E+00  0.0000E+00  0.1200E+02  0.1200E+02
    -44.675  0.0000E+00  0.0000E+00  0.1200E+02  0.1200E+02
    -44.393  0.0000E+00  0.0000E+00  0.1200E+02  0.1200E+02
    -44.111  0.0000E+00  0.0000E+00  0.1200E+02  0.1200E+02
    -43.829  0.0000E+00  0.0000E+00  0.1200E+02  0.1200E+02
    -43.547  0.0000E+00  0.0000E+00  0.1200E+02  0.1200E+02
    -43.265  0.0000E+00  0.0000E+00  0.1200E+02  0.1200E+02
    -42.983  0.0000E+00  0.0000E+00  0.1200E+02  0.1200E+02
    -42.701  0.0000E+00  0.0000E+00  0.1200E+02  0.1200E+02
    -42.419  0.0000E+00  0.0000E+00  0.1200E+02  0.1200E+02
    -42.137  0.0000E+00  0.0000E+00  0.1200E+02  0.1200E+02
    -41.855  0.0000E+00  0.0000E+00  0.1200E+02  0.1200E+02
    -41.573  0.0000E+00  0.0000E+00  0.1200E+02  0.1200E+02
    -41.291  0.0000E+00  0.0000E+00  0.1200E+02  0.1200E+02
    -41.008  0.0000E+00  0.0000E+00  0.1200E+02  0.1200E+02
    -40.726  0.0000E+00  0.0000E+00  0.1200E+02  0.1200E+02
    -40.444  0.0000E+00  0.0000E+00  0.1200E+02  0.1200E+02
    -40.162  0.0000E+00  0.0000E+00  0.1200E+02  0.1200E+02
    -39.880  0.0000E+00  0.0000E+00  0.1200E+02  0.1200E+02
    -39.598  0.0000E+00  0.0000E+00  0.1200E+02  0.1200E+02
    -39.316  0.0000E+00  0.0000E+00  0.1200E+02  0.1200E+02
    -39.034  0.0000E+00  0.0000E+00  0.1200E+02  0.1200E+02
    -38.752  0.0000E+00  0.0000E+00  0.1200E+02  0.1200E+02
    -38.470  0.0000E+00  0.0000E+00  0.1200E+02  0.1200E+02
    -38.188  0.0000E+00  0.0000E+00  0.1200E+02  0.1200E+02
    -37.906  0.0000E+00  0.0000E+00  0.1200E+02  0.1200E+02
    -37.624  0.0000E+00  0.0000E+00  0.1200E+02  0.1200E+02
    -37.342  0.0000E+00  0.0000E+00  0.1200E+02  0.1200E+02
    -37.060  0.0000E+00  0.0000E+00  0.1200E+02  0.1200E+02
    -36.778  0.0000E+00  0.0000E+00  0.1200E+02  0.1200E+02
    -36.496  0.0000E+00  0.0000E+00  0.1200E+02  0.1200E+02
    -36.213  0.0000E+00  0.0000E+00  0.1200E+02  0.1200E+02
    -35.931  0.0000E+00  0.0000E+00  0.1200E+02  0.1200E+02
    -35.649  0.0000E+00  0.0000E+00  0.1200E+02  0.1200E+02
    -35.367  0.0000E+00  0.0000E+00  0.1200E+02  0.1200E+02
    -35.085  0.0000E+00  0.0000E+00  0.1200E+02  0.1200E+02
    -34.803  0.0000E+00  0.0000E+00  0.1200E+02  0.1200E+02
    -34.521  0.0000E+00  0.0000E+00  0.1200E+02  0.1200E+02
    -34.239  0.0000E+00  0.0000E+00  0.1200E+02  0.1200E+02
    -33.957  0.0000E+00  0.0000E+00  0.1200E+02  0.1200E+02
    -33.675  0.0000E+00  0.0000E+00  0.1200E+02  0.1200E+02
    -33.393  0.0000E+00  0.0000E+00  0.1200E+02  0.1200E+02
    -33.111  0.0000E+00  0.0000E+00  0.1200E+02  0.1200E+02
    -32.829  0.0000E+00  0.0000E+00  0.1200E+02  0.1200E+02
    -32.547  0.0000E+00  0.0000E+00  0.1200E+02  0.1200E+02
    -32.265  0.0000E+00  0.0000E+00  0.1200E+02  0.1200E+02
    -31.983  0.0000E+00  0.0000E+00  0.1200E+02  0.1200E+02
    -31.700  0.0000E+00  0.0000E+00  0.1200E+02  0.1200E+02
    -31.418  0.0000E+00  0.0000E+00  0.1200E+02  0.1200E+02
    -31.136  0.0000E+00  0.0000E+00  0.1200E+02  0.1200E+02
    -30.854  0.0000E+00  0.0000E+00  0.1200E+02  0.1200E+02
    -30.572  0.0000E+00  0.0000E+00  0.1200E+02  0.1200E+02
    -30.290  0.0000E+00  0.0000E+00  0.1200E+02  0.1200E+02
    -30.008  0.0000E+00  0.0000E+00  0.1200E+02  0.1200E+02
    -29.726  0.0000E+00  0.0000E+00  0.1200E+02  0.1200E+02
    -29.444  0.0000E+00  0.0000E+00  0.1200E+02  0.1200E+02
    -29.162  0.0000E+00  0.0000E+00  0.1200E+02  0.1200E+02
    -28.880  0.0000E+00  0.0000E+00  0.1200E+02  0.1200E+02
    -28.598  0.0000E+00  0.0000E+00  0.1200E+02  0.1200E+02
    -28.316  0.0000E+00  0.0000E+00  0.1200E+02  0.1200E+02
    -28.034  0.0000E+00  0.0000E+00  0.1200E+02  0.1200E+02
    -27.752  0.0000E+00  0.0000E+00  0.1200E+02  0.1200E+02
    -27.470  0.0000E+00  0.0000E+00  0.1200E+02  0.1200E+02
    -27.187  0.0000E+00  0.0000E+00  0.1200E+02  0.1200E+02
    -26.905  0.0000E+00  0.0000E+00  0.1200E+02  0.1200E+02
    -26.623  0.0000E+00  0.0000E+00  0.1200E+02  0.1200E+02
    -26.341  0.0000E+00  0.0000E+00  0.1200E+02  0.1200E+02
    -26.059  0.0000E+00  0.0000E+00  0.1200E+02  0.1200E+02
    -25.777  0.0000E+00  0.0000E+00  0.1200E+02  0.1200E+02
    -25.495  0.0000E+00  0.0000E+00  0.1200E+02  0.1200E+02
    -25.213  0.0000E+00  0.0000E+00  0.1200E+02  0.1200E+02
    -24.931  0.0000E+00  0.0000E+00  0.1200E+02  0.1200E+02
    -24.649  0.0000E+00  0.0000E+00  0.1200E+02  0.1200E+02
    -24.367  0.0000E+00  0.0000E+00  0.1200E+02  0.1200E+02
    -24.085  0.0000E+00  0.0000E+00  0.1200E+02  0.1200E+02
    -23.803  0.0000E+00  0.0000E+00  0.1200E+02  0.1200E+02
    -23.521  0.0000E+00  0.0000E+00  0.1200E+02  0.1200E+02
    -23.239  0.0000E+00  0.0000E+00  0.1200E+02  0.1200E+02
    -22.957  0.0000E+00  0.0000E+00  0.1200E+02  0.1200E+02
    -22.674  0.0000E+00  0.0000E+00  0.1200E+02  0.1200E+02
    -22.392  0.0000E+00  0.0000E+00  0.1200E+02  0.1200E+02
    -22.110  0.0000E+00  0.0000E+00  0.1200E+02  0.1200E+02
    -21.828  0.0000E+00  0.0000E+00  0.1200E+02  0.1200E+02
    -21.546  0.0000E+00  0.0000E+00  0.1200E+02  0.1200E+02
    -21.264  0.0000E+00  0.0000E+00  0.1200E+02  0.1200E+02
    -20.982  0.0000E+00  0.0000E+00  0.1200E+02  0.1200E+02
    -20.700  0.0000E+00  0.0000E+00  0.1200E+02  0.1200E+02
    -20.418  0.0000E+00  0.0000E+00  0.1200E+02  0.1200E+02
    -20.136  0.0000E+00  0.0000E+00  0.1200E+02  0.1200E+02
    -19.854  0.0000E+00  0.0000E+00  0.1200E+02  0.1200E+02
    -19.572  0.0000E+00  0.0000E+00  0.1200E+02  0.1200E+02
    -19.290  0.0000E+00  0.0000E+00  0.1200E+02  0.1200E+02
    -19.008  0.0000E+00  0.0000E+00  0.1200E+02  0.1200E+02
    -18.726  0.0000E+00  0.0000E+00  0.1200E+02  0.1200E+02
    -18.444  0.0000E+00  0.0000E+00  0.1200E+02  0.1200E+02
    -18.162  0.0000E+00  0.0000E+00  0.1200E+02  0.1200E+02
    -17.879  0.0000E+00  0.0000E+00  0.1200E+02  0.1200E+02
    -17.597  0.0000E+00  0.0000E+00  0.1200E+02  0.1200E+02
    -17.315  0.0000E+00  0.0000E+00  0.1200E+02  0.1200E+02
    -17.033  0.0000E+00  0.0000E+00  0.1200E+02  0.1200E+02
    -16.751  0.0000E+00  0.0000E+00  0.1200E+02  0.1200E+02
    -16.469  0.0000E+00  0.0000E+00  0.1200E+02  0.1200E+02
    -16.187  0.0000E+00  0.0000E+00  0.1200E+02  0.1200E+02
    -15.905  0.0000E+00  0.0000E+00  0.1200E+02  0.1200E+02
    -15.623  0.0000E+00  0.0000E+00  0.1200E+02  0.1200E+02
    -15.341  0.0000E+00  0.0000E+00  0.1200E+02  0.1200E+02
    -15.059  0.0000E+00  0.0000E+00  0.1200E+02  0.1200E+02
    -14.777  0.0000E+00  0.0000E+00  0.1200E+02  0.1200E+02
    -14.495  0.0000E+00  0.0000E+00  0.1200E+02  0.1200E+02
    -14.213  0.0000E+00  0.0000E+00  0.1200E+02  0.1200E+02
    -13.931  0.0000E+00  0.0000E+00  0.1200E+02  0.1200E+02
    -13.649  0.0000E+00  0.0000E+00  0.1200E+02  0.1200E+02
    -13.366  0.0000E+00  0.0000E+00  0.1200E+02  0.1200E+02
    -13.084  0.0000E+00  0.0000E+00  0.1200E+02  0.1200E+02
    -12.802  0.0000E+00  0.0000E+00  0.1200E+02  0.1200E+02
    -12.520  0.0000E+00  0.0000E+00  0.1200E+02  0.1200E+02
    -12.238  0.0000E+00  0.0000E+00  0.1200E+02  0.1200E+02
    -11.956  0.0000E+00  0.0000E+00  0.1200E+02  0.1200E+02
    -11.674  0.0000E+00  0.0000E+00  0.1200E+02  0.1200E+02
    -11.392  0.0000E+00  0.0000E+00  0.1200E+02  0.1200E+02
    -11.110  0.0000E+00  0.0000E+00  0.1200E+02  0.1200E+02
    -10.828  0.0000E+00  0.0000E+00  0.1200E+02  0.1200E+02
    -10.546  0.0000E+00  0.0000E+00  0.1200E+02  0.1200E+02
    -10.264  0.0000E+00  0.0000E+00  0.1200E+02  0.1200E+02
     -9.982  0.0000E+00  0.0000E+00  0.1200E+02  0.1200E+02
     -9.700  0.0000E+00  0.0000E+00  0.1200E+02  0.1200E+02
     -9.418  0.0000E+00  0.0000E+00  0.1200E+02  0.1200E+02
     -9.136  0.0000E+00  0.0000E+00  0.1200E+02  0.1200E+02
     -8.853  0.0000E+00  0.0000E+00  0.1200E+02  0.1200E+02
     -8.571  0.0000E+00  0.0000E+00  0.1200E+02  0.1200E+02
     -8.289  0.0000E+00  0.0000E+00  0.1200E+02  0.1200E+02
     -8.007  0.0000E+00  0.0000E+00  0.1200E+02  0.1200E+02
     -7.725  0.0000E+00  0.0000E+00  0.1200E+02  0.1200E+02
     -7.443  0.0000E+00  0.0000E+00  0.1200E+02  0.1200E+02
     -7.161  0.0000E+00  0.0000E+00  0.1200E+02  0.1200E+02
     -6.879  0.0000E+00  0.0000E+00  0.1200E+02  0.1200E+02
     -6.597  0.0000E+00  0.0000E+00  0.1200E+02  0.1200E+02
     -6.315  0.0000E+00  0.0000E+00  0.1200E+02  0.1200E+02
     -6.033  0.0000E+00  0.0000E+00  0.1200E+02  0.1200E+02
     -5.751  0.0000E+00  0.0000E+00  0.1200E+02  0.1200E+02
     -5.469  0.0000E+00  0.0000E+00  0.1200E+02  0.1200E+02
     -5.187  0.0000E+00  0.0000E+00  0.1200E+02  0.1200E+02
     -4.905  0.0000E+00  0.0000E+00  0.1200E+02  0.1200E+02
     -4.623  0.0000E+00  0.0000E+00  0.1200E+02  0.1200E+02
     -4.340  0.0000E+00  0.0000E+00  0.1200E+02  0.1200E+02
     -4.058  0.0000E+00  0.0000E+00  0.1200E+02  0.1200E+02
     -3.776  0.0000E+00  0.0000E+00  0.1200E+02  0.1200E+02
     -3.494  0.0000E+00  0.0000E+00  0.1200E+02  0.1200E+02
     -3.212  0.0000E+00  0.0000E+00  0.1200E+02  0.1200E+02
     -2.930  0.0000E+00  0.0000E+00  0.1200E+02  0.1200E+02
     -2.648  0.0000E+00  0.0000E+00  0.1200E+02  0.1200E+02
     -2.366  0.0000E+00  0.0000E+00  0.1200E+02  0.1200E+02
     -2.084  0.0000E+00  0.0000E+00  0.1200E+02  0.1200E+02
     -1.802  0.1605E-01  0.1605E-01  0.1200E+02  0.1200E+02
     -1.520  0.1300E+00  0.1300E+00  0.1202E+02  0.1202E+02
     -1.238  0.1849E+00  0.1849E+00  0.1207E+02  0.1207E+02
     -0.956  0.2463E+00  0.2463E+00  0.1213E+02  0.1213E+02
     -0.674  0.2987E+00  0.2987E+00  0.1221E+02  0.1221E+02
     -0.392  0.3681E+00  0.3681E+00  0.1230E+02  0.1230E+02
     -0.110  0.4209E+00  0.4209E+00  0.1241E+02  0.1241E+02
      0.172  0.5467E+00  0.5467E+00  0.1255E+02  0.1255E+02
      0.455  0.4941E+00  0.4941E+00  0.1270E+02  0.1270E+02
      0.737  0.4282E+00  0.4282E+00  0.1283E+02  0.1283E+02
      1.019  0.3202E+00  0.3202E+00  0.1294E+02  0.1294E+02
      1.301  0.1740E+00  0.1740E+00  0.1301E+02  0.1301E+02
      1.583  0.4381E+00  0.4381E+00  0.1309E+02  0.1309E+02
      1.865  0.6738E+00  0.6738E+00  0.1324E+02  0.1324E+02
      2.147  0.7250E+00  0.7250E+00  0.1345E+02  0.1345E+02
      2.429  0.5409E+00  0.5409E+00  0.1364E+02  0.1364E+02
      2.711  0.4385E+00  0.4385E+00  0.1377E+02  0.1377E+02
      2.993  0.7660E+00  0.7660E+00  0.1392E+02  0.1392E+02
      3.275  0.9279E+00  0.9279E+00  0.1419E+02  0.1419E+02
      3.557  0.9686E+00  0.9686E+00  0.1446E+02  0.1446E+02
      3.839  0.1177E+01  0.1177E+01  0.1476E+02  0.1476E+02
      4.121  0.1404E+01  0.1404E+01  0.1512E+02  0.1512E+02
      4.403  0.1280E+01  0.1280E+01  0.1552E+02  0.1552E+02
      4.685  0.2122E+01  0.2122E+01  0.1597E+02  0.1597E+02
      4.968  0.1739E+01  0.1739E+01  0.1645E+02  0.1645E+02
      5.250  0.2919E+01  0.2919E+01  0.1718E+02  0.1718E+02
      5.532  0.5853E+01  0.5853E+01  0.1823E+02  0.1823E+02
      5.814  0.5306E+01  0.5306E+01  0.2001E+02  0.2001E+02
      6.096  0.7573E+01  0.7573E+01  0.2142E+02  0.2142E+02
      6.378  0.6233E+01  0.6233E+01  0.2338E+02  0.2338E+02
      6.660  0.4872E+01  0.4872E+01  0.2483E+02  0.2483E+02
      6.942  0.3628E+01  0.3628E+01  0.2639E+02  0.2639E+02
      7.224  0.5829E+01  0.5829E+01  0.2804E+02  0.2804E+02
      7.506  0.5172E+01  0.5172E+01  0.3008E+02  0.3008E+02
      7.788  0.5506E+01  0.5506E+01  0.3209E+02  0.3209E+02
      8.070  0.3965E+01  0.3965E+01  0.3334E+02  0.3334E+02
      8.352  0.3737E+01  0.3737E+01  0.3442E+02  0.3442E+02
      8.634  0.1914E+01  0.1914E+01  0.3511E+02  0.3511E+02
      8.916  0.1786E+01  0.1786E+01  0.3566E+02  0.3566E+02
      9.198  0.1033E+01  0.1033E+01  0.3607E+02  0.3607E+02
      9.481  0.1065E+01  0.1065E+01  0.3635E+02  0.3635E+02
      9.763  0.1075E+01  0.1075E+01  0.3666E+02  0.3666E+02
     10.045  0.1031E+01  0.1031E+01  0.3696E+02  0.3696E+02
     10.327  0.8756E+00  0.8756E+00  0.3723E+02  0.3723E+02
     10.609  0.7780E+00  0.7780E+00  0.3746E+02  0.3746E+02
     10.891  0.6856E+00  0.6856E+00  0.3766E+02  0.3766E+02
     11.173  0.5706E+00  0.5706E+00  0.3784E+02  0.3784E+02
     11.455  0.7033E+00  0.7033E+00  0.3800E+02  0.3800E+02
     11.737  0.1304E+01  0.1304E+01  0.3831E+02  0.3831E+02
     12.019  0.9176E+00  0.9176E+00  0.3859E+02  0.3859E+02
     12.301  0.9678E+00  0.9678E+00  0.3885E+02  0.3885E+02
     12.583  0.9073E+00  0.9073E+00  0.3912E+02  0.3912E+02
     12.865  0.8759E+00  0.8759E+00  0.3937E+02  0.3937E+02
     13.147  0.9474E+00  0.9474E+00  0.3962E+02  0.3962E+02
     13.429  0.1045E+01  0.1045E+01  0.3991E+02  0.3991E+02
     13.711  0.8089E+00  0.8089E+00  0.4017E+02  0.4017E+02
     13.993  0.7833E+00  0.7833E+00  0.4039E+02  0.4039E+02
     14.276  0.8428E+00  0.8428E+00  0.4062E+02  0.4062E+02
     14.558  0.9822E+00  0.9822E+00  0.4087E+02  0.4087E+02
     14.840  0.1106E+01  0.1106E+01  0.4117E+02  0.4117E+02
     15.122  0.1102E+01  0.1102E+01  0.4148E+02  0.4148E+02
     15.404  0.1115E+01  0.1115E+01  0.4179E+02  0.4179E+02
     15.686  0.1134E+01  0.1134E+01  0.4211E+02  0.4211E+02
     15.968  0.1064E+01  0.1064E+01  0.4242E+02  0.4242E+02
     16.250  0.1007E+01  0.1007E+01  0.4271E+02  0.4271E+02
     16.532  0.9724E+00  0.9724E+00  0.4299E+02  0.4299E+02
     16.814  0.1185E+01  0.1185E+01  0.4328E+02  0.4328E+02
     17.096  0.1299E+01  0.1299E+01  0.4364E+02  0.4364E+02
     17.378  0.1253E+01  0.1253E+01  0.4402E+02  0.4402E+02
     17.660  0.1246E+01  0.1246E+01  0.4440E+02  0.4440E+02
     17.942  0.1284E+01  0.1284E+01  0.4475E+02  0.4475E+02
     18.224  0.1174E+01  0.1174E+01  0.4510E+02  0.4510E+02
     18.506  0.1015E+01  0.1015E+01  0.4540E+02  0.4540E+02
     18.789  0.9750E+00  0.9750E+00  0.4568E+02  0.4568E+02
     19.071  0.9346E+00  0.9346E+00  0.4596E+02  0.4596E+02
     19.353  0.1419E+01  0.1419E+01  0.4627E+02  0.4627E+02
     19.635  0.1249E+01  0.1249E+01  0.4664E+02  0.4664E+02
     19.917  0.1214E+01  0.1214E+01  0.4699E+02  0.4699E+02
     20.199  0.1084E+01  0.1084E+01  0.4733E+02  0.4733E+02
     20.481  0.9931E+00  0.9931E+00  0.4763E+02  0.4763E+02
     20.763  0.6058E+00  0.6058E+00  0.4786E+02  0.4786E+02
     21.045  0.1714E+00  0.1714E+00  0.4795E+02  0.4795E+02
     21.327  0.6563E-01  0.6563E-01  0.4798E+02  0.4798E+02
     21.609  0.2430E-01  0.2430E-01  0.4800E+02  0.4800E+02
     21.891  0.2984E-02  0.2984E-02  0.4800E+02  0.4800E+02
     22.173  0.0000E+00  0.0000E+00  0.4800E+02  0.4800E+02
     22.455  0.0000E+00  0.0000E+00  0.4800E+02  0.4800E+02
     22.737  0.0000E+00  0.0000E+00  0.4800E+02  0.4800E+02
     23.019  0.0000E+00  0.0000E+00  0.4800E+02  0.4800E+02
     23.302  0.0000E+00  0.0000E+00  0.4800E+02  0.4800E+02
     23.584  0.0000E+00  0.0000E+00  0.4800E+02  0.4800E+02
     23.866  0.0000E+00  0.0000E+00  0.4800E+02  0.4800E+02
     24.148  0.0000E+00  0.0000E+00  0.4800E+02  0.4800E+02
     24.430  0.0000E+00  0.0000E+00  0.4800E+02  0.4800E+02
     24.712  0.0000E+00  0.0000E+00  0.4800E+02  0.4800E+02
     24.994  0.0000E+00  0.0000E+00  0.4800E+02  0.4800E+02
     25.276  0.0000E+00  0.0000E+00  0.4800E+02  0.4800E+02
     25.558  0.0000E+00  0.0000E+00  0.4800E+02  0.4800E+02
     25.840  0.0000E+00  0.0000E+00  0.4800E+02  0.4800E+02
