       N       E                     dE             d eps       ncg     rms          rms(c)
DAV:   1    -0.329608467085E+02   -0.32961E+02   -0.16649E-01 13056   0.441E+00    0.161E-01
DAV:   2    -0.329644022157E+02   -0.35555E-02   -0.10628E-02 15584   0.192E+00    0.642E-01
DAV:   3    -0.329608723434E+02    0.35299E-02   -0.71090E-03 14768   0.153E+00    0.414E-02
DAV:   4    -0.329609341959E+02   -0.61853E-04   -0.20549E-04 15776   0.117E-01    0.340E-02
DAV:   5    -0.329609480192E+02   -0.13823E-04   -0.44543E-05 15296   0.135E-01    0.324E-02
DAV:   6    -0.329609369273E+02    0.11092E-04   -0.19659E-05 14528   0.985E-02    0.103E-02
DAV:   7    -0.329609529223E+02   -0.15995E-04   -0.33976E-06 17136   0.265E-02    0.391E-03
DAV:   8    -0.329609479948E+02    0.49276E-05   -0.50556E-07 15280   0.107E-02    0.656E-04
DAV:   9    -0.329609489002E+02   -0.90545E-06   -0.45810E-08 12752   0.283E-03    0.406E-04
DAV:  10    -0.329609483540E+02    0.54622E-06   -0.63268E-09  7088   0.129E-03    0.857E-05
DAV:  11    -0.329609484606E+02   -0.10660E-06   -0.13522E-09  6880   0.418E-04    0.371E-05
DAV:  12    -0.329609484359E+02    0.24698E-07   -0.34087E-10  6672   0.188E-04    0.105E-05
DAV:  13    -0.329609484457E+02   -0.98044E-08   -0.10805E-10  6592   0.105E-04
   1 F= -.32960948E+02 E0= -.32960948E+02  d E =0.000000E+00  mag=     0.0000
