 running on   24 total cores
 distrk:  each k-point on   24 cores,    1 groups
 distr:  one band on    6 cores,    4 groups
 using from now: INCAR     
 vasp.5.4.4.18Apr17-6-g9f103f2a35 (build Jan 03 2018 06:08:52) complex          
  
 POSCAR found :  2 types and       6 ions
 scaLAPACK will be used
 WARNING: for PREC=h ENMAX is automatically increase by 25 %
        this was not the case for versions prior to vasp.4.4
 WARNING: for PREC=h ENMAX is automatically increase by 25 %
        this was not the case for versions prior to vasp.4.4
 LDA part: xc-table for Pade appr. of Perdew
 POSCAR, INCAR and KPOINTS ok, starting setup
 FFT: planning ...
 WAVECAR not read
 entering main loop
       N       E                     dE             d eps       ncg     rms          rms(c)
DAV:   1     0.866186114776E+03    0.86619E+03   -0.41410E+04 15144   0.178E+03
DAV:   2     0.180818992123E+02   -0.84810E+03   -0.81153E+03 13304   0.567E+02
DAV:   3    -0.364657926304E+02   -0.54548E+02   -0.51681E+02 14832   0.165E+02
DAV:   4    -0.378716217899E+02   -0.14058E+01   -0.14017E+01 14504   0.256E+01
DAV:   5    -0.379095538365E+02   -0.37932E-01   -0.37930E-01 15608   0.411E+00    0.241E+01
DAV:   6    -0.438460127775E+02   -0.59365E+01   -0.83484E+01 14952   0.107E+02    0.308E+01
DAV:   7    -0.326608973632E+02    0.11185E+02   -0.34037E+01 15112   0.694E+01    0.444E+00
DAV:   8    -0.329086684076E+02   -0.24777E+00   -0.27539E+00 15896   0.243E+01    0.683E+00
DAV:   9    -0.326751154232E+02    0.23355E+00   -0.12381E+00 16536   0.134E+01    0.144E+00
DAV:  10    -0.326654118063E+02    0.97036E-02   -0.10627E-01 16504   0.467E+00    0.125E+00
DAV:  11    -0.326568087281E+02    0.86031E-02   -0.40188E-02 14728   0.411E+00    0.425E-01
DAV:  12    -0.326559645674E+02    0.84416E-03   -0.53358E-03 15392   0.110E+00    0.159E-01
DAV:  13    -0.326560173911E+02   -0.52824E-04   -0.88232E-04 15488   0.298E-01    0.714E-02
DAV:  14    -0.326560095017E+02    0.78894E-05   -0.86970E-05 16520   0.113E-01    0.290E-02
DAV:  15    -0.326560106775E+02   -0.11758E-05   -0.24776E-05 18160   0.490E-02    0.138E-02
DAV:  16    -0.326560119880E+02   -0.13105E-05   -0.57028E-06 14832   0.217E-02    0.993E-03
DAV:  17    -0.326560120115E+02   -0.23460E-07   -0.24422E-06 16392   0.142E-02    0.567E-03
DAV:  18    -0.326560120515E+02   -0.39956E-07   -0.18005E-06 17504   0.112E-02    0.246E-03
DAV:  19    -0.326560122617E+02   -0.21020E-06   -0.40695E-07 15464   0.486E-03    0.139E-03
DAV:  20    -0.326560123346E+02   -0.72992E-07   -0.94656E-08 12168   0.254E-03    0.523E-04
DAV:  21    -0.326560123614E+02   -0.26743E-07   -0.23295E-08  8032   0.121E-03    0.265E-04
DAV:  22    -0.326560123651E+02   -0.37126E-08   -0.97712E-09  7136   0.698E-04
   1 F= -.32656012E+02 E0= -.32656495E+02  d E =-.326560E+02  mag=    -0.0000
 curvature:   0.00 expect dE= 0.000E+00 dE for cont linesearch  0.000E+00
 trial: gam= 0.00000 g(F)=  0.855E-03 g(S)=  0.977E+00 ort = 0.000E+00 (trialstep = 0.100E+01)
 search vector abs. value=  0.977E+00
 bond charge predicted
       N       E                     dE             d eps       ncg     rms          rms(c)
DAV:   1    -0.930498870350E+02   -0.60394E+02   -0.60689E+02 13264   0.296E+02    0.658E+01
DAV:   2    -0.770981636205E+02    0.15952E+02   -0.53123E+02 15056   0.221E+02    0.556E+01
DAV:   3    -0.371619154797E+02    0.39936E+02   -0.16436E+02 15072   0.136E+02    0.239E+01
DAV:   4    -0.356978831784E+02    0.14640E+01   -0.24905E+01 14496   0.561E+01    0.158E+01
DAV:   5    -0.331022622169E+02    0.25956E+01   -0.56000E+00 15456   0.284E+01    0.461E+00
DAV:   6    -0.330064841729E+02    0.95778E-01   -0.12950E+00 16864   0.165E+01    0.502E+00
DAV:   7    -0.328807354182E+02    0.12575E+00   -0.65645E-01 14688   0.117E+01    0.352E+00
DAV:   8    -0.328020792893E+02    0.78656E-01   -0.32188E-01 15424   0.732E+00    0.636E-01
DAV:   9    -0.328019165262E+02    0.16276E-03   -0.28599E-02 14936   0.162E+00    0.345E-01
DAV:  10    -0.328010230045E+02    0.89352E-03   -0.43119E-03 14400   0.747E-01    0.188E-01
DAV:  11    -0.328008144212E+02    0.20858E-03   -0.91920E-04 16608   0.501E-01    0.300E-02
DAV:  12    -0.328008206568E+02   -0.62356E-05   -0.72986E-05 14392   0.702E-02    0.228E-02
DAV:  13    -0.328008189368E+02    0.17200E-05   -0.12866E-05 18872   0.612E-02    0.736E-03
DAV:  14    -0.328008181340E+02    0.80282E-06   -0.23458E-06 14760   0.153E-02    0.238E-03
DAV:  15    -0.328008180803E+02    0.53604E-07   -0.22425E-07 18040   0.746E-03    0.102E-03
DAV:  16    -0.328008181455E+02   -0.65113E-07   -0.51686E-08 12688   0.320E-03    0.117E-04
DAV:  17    -0.328008181478E+02   -0.23720E-08   -0.36355E-09  7320   0.823E-04
   2 F= -.32800818E+02 E0= -.32801595E+02  d E =-.144806E+00  mag=    -0.0000
 trial-energy change:   -0.144806  1 .order   -0.187513   -0.977446    0.602419
 step:   0.5792(harm=  0.6187)  dis= 0.00178  next Energy=   -32.930763 (dE=-0.275E+00)
 bond charge predicted
       N       E                     dE             d eps       ncg     rms          rms(c)
DAV:   1    -0.456874328038E+02   -0.12887E+02   -0.11775E+02 14016   0.110E+02    0.361E+01
DAV:   2    -0.565417784948E+02   -0.10854E+02   -0.16996E+02 14240   0.153E+02    0.385E+01
DAV:   3    -0.331323053762E+02    0.23409E+02   -0.67188E+01 14432   0.879E+01    0.377E+00
DAV:   4    -0.331607359446E+02   -0.28431E-01   -0.19599E+00 17664   0.149E+01    0.612E+00
DAV:   5    -0.330933699755E+02    0.67366E-01   -0.15783E+00 15872   0.144E+01    0.417E+00
DAV:   6    -0.329431878391E+02    0.15018E+00   -0.49286E-01 15424   0.849E+00    0.194E+00
DAV:   7    -0.329253319277E+02    0.17856E-01   -0.91720E-02 14768   0.568E+00    0.471E-01
DAV:   8    -0.329246428765E+02    0.68905E-03   -0.84876E-03 14320   0.103E+00    0.113E-01
DAV:   9    -0.329244266035E+02    0.21627E-03   -0.11510E-03 15072   0.312E-01    0.425E-02
DAV:  10    -0.329244078266E+02    0.18777E-04   -0.23078E-04 15680   0.149E-01    0.335E-02
DAV:  11    -0.329243956895E+02    0.12137E-04   -0.44022E-05 14784   0.708E-02    0.460E-03
DAV:  12    -0.329243955119E+02    0.17769E-06   -0.23545E-06 14576   0.164E-02    0.125E-03
DAV:  13    -0.329243955227E+02   -0.10865E-07   -0.20634E-07 16480   0.448E-03    0.148E-03
DAV:  14    -0.329243954111E+02    0.11159E-06   -0.90207E-08 14256   0.334E-03    0.304E-04
DAV:  15    -0.329243954242E+02   -0.13037E-07   -0.53564E-09  7808   0.875E-04    0.359E-05
DAV:  16    -0.329243954267E+02   -0.24829E-08   -0.82166E-10  7424   0.238E-04
   3 F= -.32924395E+02 E0= -.32925027E+02  d E =-.268383E+00  mag=    -0.0000
 curvature:  -0.31 expect dE=-0.127E-01 dE for cont linesearch -0.315E-08
 trial: gam= 0.04246 g(F)=  0.251E-03 g(S)=  0.412E-01 ort =-0.100E-03 (trialstep = 0.916E+00)
 search vector abs. value=  0.432E-01
 bond charge predicted
       N       E                     dE             d eps       ncg     rms          rms(c)
DAV:   1    -0.333732382525E+02   -0.44884E+00   -0.90651E+00 15504   0.250E+01    0.636E+00
DAV:   2    -0.338662223965E+02   -0.49298E+00   -0.68344E+00 15280   0.286E+01    0.110E+01
DAV:   3    -0.332422160341E+02    0.62401E+00   -0.62700E+00 14608   0.302E+01    0.566E+00
DAV:   4    -0.329730861246E+02    0.26913E+00   -0.65589E-01 14912   0.139E+01    0.145E+00
DAV:   5    -0.329742580769E+02   -0.11720E-02   -0.15948E-01 16736   0.609E+00    0.207E+00
DAV:   6    -0.329498393346E+02    0.24419E-01   -0.64722E-02 14448   0.493E+00    0.457E-01
DAV:   7    -0.329482558308E+02    0.15835E-02   -0.14568E-02 14832   0.110E+00    0.153E-01
DAV:   8    -0.329481185663E+02    0.13726E-03   -0.16571E-03 14608   0.608E-01    0.106E-01
DAV:   9    -0.329480935875E+02    0.24979E-04   -0.53977E-04 14752   0.430E-01    0.598E-02
DAV:  10    -0.329480738550E+02    0.19732E-04   -0.72932E-05 16632   0.141E-01    0.111E-02
DAV:  11    -0.329480729991E+02    0.85597E-06   -0.74943E-06 19584   0.324E-02    0.326E-03
DAV:  12    -0.329480730193E+02   -0.20289E-07   -0.13040E-06 14224   0.146E-02    0.785E-04
DAV:  13    -0.329480730351E+02   -0.15796E-07   -0.11734E-07 14424   0.527E-03    0.184E-03
DAV:  14    -0.329480730243E+02    0.10818E-07   -0.41766E-08 10264   0.414E-03    0.329E-04
DAV:  15    -0.329480730245E+02   -0.17099E-09   -0.50243E-09  7000   0.611E-04
   4 F= -.32948073E+02 E0= -.32948660E+02  d E =-.236776E-01  mag=    -0.0000
 trial-energy change:   -0.023678  1 .order   -0.023190   -0.037916   -0.008465
 step:   1.1499(harm=  1.1791)  dis= 0.00215  next Energy=   -32.949163 (dE=-0.248E-01)
 bond charge predicted
       N       E                     dE             d eps       ncg     rms          rms(c)
DAV:   1    -0.329767549796E+02   -0.28682E-01   -0.59891E-01 15152   0.653E+00    0.154E+00
DAV:   2    -0.329911345913E+02   -0.14380E-01   -0.31690E-01 15264   0.661E+00    0.219E+00
DAV:   3    -0.329661836408E+02    0.24951E-01   -0.25624E-01 14800   0.821E+00    0.151E+00
DAV:   4    -0.329516063902E+02    0.14577E-01   -0.50335E-02 14576   0.373E+00    0.433E-01
DAV:   5    -0.329508422727E+02    0.76412E-03   -0.95107E-03 18208   0.162E+00    0.493E-01
DAV:   6    -0.329493836053E+02    0.14587E-02   -0.36708E-03 14512   0.141E+00    0.985E-02
DAV:   7    -0.329493112967E+02    0.72309E-04   -0.70709E-04 14624   0.251E-01    0.229E-02
DAV:   8    -0.329493069561E+02    0.43407E-05   -0.46912E-05 14640   0.859E-02    0.147E-02
DAV:   9    -0.329493065353E+02    0.42074E-06   -0.66568E-06 16976   0.460E-02    0.508E-03
DAV:  10    -0.329493063292E+02    0.20608E-06   -0.87727E-07 16896   0.147E-02    0.762E-04
DAV:  11    -0.329493063278E+02    0.14315E-08   -0.91139E-08 14352   0.374E-03
   5 F= -.32949306E+02 E0= -.32949835E+02  d E =-.249109E-01  mag=    -0.0000
 curvature:  -0.61 expect dE=-0.308E-03 dE for cont linesearch -0.724E-05
 trial: gam= 0.00565 g(F)=  0.838E-04 g(S)=  0.423E-03 ort = 0.718E-03 (trialstep = 0.963E+00)
 search vector abs. value=  0.517E-03
 bond charge predicted
       N       E                     dE             d eps       ncg     rms          rms(c)
DAV:   1    -0.329558379150E+02   -0.65316E-02   -0.14501E-01 15584   0.741E+00    0.933E-01
DAV:   2    -0.329643479844E+02   -0.85101E-02   -0.14311E-01 14512   0.407E+00    0.110E+00
DAV:   3    -0.329505053346E+02    0.13843E-01   -0.46090E-02 14256   0.261E+00    0.343E-01
DAV:   4    -0.329504260590E+02    0.79276E-04   -0.61903E-03 15360   0.150E+00    0.309E-01
DAV:   5    -0.329496101184E+02    0.81594E-03   -0.13164E-03 17568   0.694E-01    0.386E-02
DAV:   6    -0.329496518423E+02   -0.41724E-04   -0.33006E-04 17152   0.296E-01    0.810E-02
DAV:   7    -0.329496137869E+02    0.38055E-04   -0.12725E-04 14480   0.238E-01    0.122E-02
DAV:   8    -0.329496144600E+02   -0.67315E-06   -0.12404E-05 14992   0.387E-02    0.649E-03
DAV:   9    -0.329496147077E+02   -0.24767E-06   -0.12789E-06 16368   0.153E-02    0.164E-03
DAV:  10    -0.329496148681E+02   -0.16037E-06   -0.16038E-07 14592   0.516E-03    0.477E-04
DAV:  11    -0.329496148998E+02   -0.31681E-07   -0.11977E-08  7376   0.164E-03    0.135E-04
DAV:  12    -0.329496149074E+02   -0.76088E-08   -0.27544E-09  7024   0.553E-04
   6 F= -.32949615E+02 E0= -.32950129E+02  d E =-.308580E-03  mag=     0.0000
 trial-energy change:   -0.000309  1 .order   -0.000333   -0.000492   -0.000175
 step:   1.4915(harm=  1.4915)  dis= 0.00145  next Energy=   -32.949688 (dE=-0.381E-03)
 bond charge predicted
       N       E                     dE             d eps       ncg     rms          rms(c)
DAV:   1    -0.329515667768E+02   -0.19519E-02   -0.43719E-02 15648   0.407E+00    0.513E-01
DAV:   2    -0.329541393999E+02   -0.25726E-02   -0.42989E-02 14496   0.224E+00    0.605E-01
DAV:   3    -0.329499665100E+02    0.41729E-02   -0.13930E-02 14256   0.147E+00    0.197E-01
DAV:   4    -0.329499189272E+02    0.47583E-04   -0.19496E-03 15264   0.845E-01    0.164E-01
DAV:   5    -0.329496846811E+02    0.23425E-03   -0.37073E-04 17808   0.370E-01    0.231E-02
DAV:   6    -0.329496996150E+02   -0.14934E-04   -0.10960E-04 16896   0.180E-01    0.496E-02
DAV:   7    -0.329496852032E+02    0.14412E-04   -0.46110E-05 14432   0.145E-01    0.666E-03
DAV:   8    -0.329496857163E+02   -0.51314E-06   -0.42284E-06 14896   0.217E-02    0.344E-03
DAV:   9    -0.329496858824E+02   -0.16608E-06   -0.36368E-07 16984   0.844E-03    0.901E-04
DAV:  10    -0.329496859703E+02   -0.87926E-07   -0.48348E-08 12816   0.286E-03    0.250E-04
DAV:  11    -0.329496859829E+02   -0.12640E-07   -0.38687E-09  6976   0.914E-04    0.767E-05
DAV:  12    -0.329496859881E+02   -0.51168E-08   -0.89343E-10  6896   0.328E-04
   7 F= -.32949686E+02 E0= -.32950192E+02  d E =-.379660E-03  mag=    -0.0000
 curvature:  -0.75 expect dE=-0.255E-03 dE for cont linesearch -0.590E-08
 trial: gam= 0.67162 g(F)=  0.974E-05 g(S)=  0.329E-03 ort = 0.201E-05 (trialstep = 0.962E+00)
 search vector abs. value=  0.574E-03
 bond charge predicted
       N       E                     dE             d eps       ncg     rms          rms(c)
DAV:   1    -0.329557247762E+02   -0.60388E-02   -0.15300E-01 15600   0.751E+00    0.922E-01
DAV:   2    -0.329640535811E+02   -0.83288E-02   -0.14096E-01 14432   0.397E+00    0.107E+00
DAV:   3    -0.329509280286E+02    0.13126E-01   -0.47779E-02 14464   0.259E+00    0.371E-01
DAV:   4    -0.329507512183E+02    0.17681E-03   -0.63956E-03 15120   0.158E+00    0.319E-01
DAV:   5    -0.329498765549E+02    0.87466E-03   -0.14804E-03 18096   0.708E-01    0.428E-02
DAV:   6    -0.329499225220E+02   -0.45967E-04   -0.36775E-04 17024   0.328E-01    0.871E-02
DAV:   7    -0.329498771671E+02    0.45355E-04   -0.15430E-04 14480   0.257E-01    0.121E-02
DAV:   8    -0.329498765231E+02    0.64403E-06   -0.14793E-05 14976   0.385E-02    0.646E-03
DAV:   9    -0.329498761406E+02    0.38242E-06   -0.13553E-06 16496   0.171E-02    0.180E-03
DAV:  10    -0.329498759729E+02    0.16779E-06   -0.16519E-07 14528   0.544E-03    0.449E-04
DAV:  11    -0.329498759559E+02    0.16968E-07   -0.11082E-08  7648   0.162E-03    0.174E-04
DAV:  12    -0.329498759486E+02    0.72578E-08   -0.26074E-09  7008   0.636E-04
   8 F= -.32949876E+02 E0= -.32950371E+02  d E =-.189961E-03  mag=     0.0000
 trial-energy change:   -0.000190  1 .order   -0.000186   -0.000327   -0.000046
 step:   1.1044(harm=  1.1179)  dis= 0.00110  next Energy=   -32.949879 (dE=-0.193E-03)
 bond charge predicted
       N       E                     dE             d eps       ncg     rms          rms(c)
DAV:   1    -0.329500087201E+02   -0.13276E-03   -0.33815E-03 15552   0.112E+00    0.137E-01
DAV:   2    -0.329501950749E+02   -0.18635E-03   -0.31207E-03 14432   0.589E-01    0.159E-01
DAV:   3    -0.329499039608E+02    0.29111E-03   -0.10529E-03 14480   0.388E-01    0.547E-02
DAV:   4    -0.329499003973E+02    0.35635E-05   -0.14096E-04 15088   0.241E-01    0.477E-02
DAV:   5    -0.329498804914E+02    0.19906E-04   -0.32709E-05 18080   0.110E-01    0.631E-03
DAV:   6    -0.329498813797E+02   -0.88827E-06   -0.77752E-06 17200   0.476E-02    0.126E-02
DAV:   7    -0.329498804060E+02    0.97367E-06   -0.32174E-06 14480   0.369E-02    0.180E-03
DAV:   8    -0.329498802786E+02    0.12746E-06   -0.31652E-07 15232   0.571E-03    0.983E-04
DAV:   9    -0.329498802272E+02    0.51352E-07   -0.27600E-08  8880   0.255E-03    0.273E-04
DAV:  10    -0.329498802027E+02    0.24575E-07   -0.62787E-09  6960   0.975E-04    0.920E-05
DAV:  11    -0.329498801994E+02    0.32633E-08   -0.12619E-09  6784   0.383E-04
   9 F= -.32949880E+02 E0= -.32950373E+02  d E =-.194211E-03  mag=    -0.0000
 curvature:  -0.94 expect dE=-0.599E-04 dE for cont linesearch -0.235E-07
 trial: gam= 0.17847 g(F)=  0.246E-05 g(S)=  0.614E-04 ort = 0.380E-05 (trialstep = 0.990E+00)
 search vector abs. value=  0.835E-04
 bond charge predicted
       N       E                     dE             d eps       ncg     rms          rms(c)
DAV:   1    -0.329506037441E+02   -0.72354E-03   -0.17928E-02 14752   0.929E-01    0.220E-01
DAV:   2    -0.329503172655E+02    0.28648E-03   -0.25338E-03 14688   0.629E-01    0.189E-01
DAV:   3    -0.329501984824E+02    0.11878E-03   -0.19318E-03 14784   0.820E-01    0.195E-01
DAV:   4    -0.329500458361E+02    0.15265E-03   -0.11251E-03 14608   0.701E-01    0.115E-01
DAV:   5    -0.329499208736E+02    0.12496E-03   -0.25127E-04 18016   0.274E-01    0.168E-02
DAV:   6    -0.329499217851E+02   -0.91153E-06   -0.32959E-05 15120   0.707E-02    0.160E-02
DAV:   7    -0.329499201625E+02    0.16226E-05   -0.76199E-06 14560   0.493E-02    0.351E-03
DAV:   8    -0.329499203148E+02   -0.15231E-06   -0.98217E-07 14544   0.116E-02    0.173E-03
DAV:   9    -0.329499203607E+02   -0.45848E-07   -0.75195E-08 14672   0.287E-03    0.588E-04
DAV:  10    -0.329499203823E+02   -0.21626E-07   -0.99031E-09  7280   0.131E-03    0.111E-04
DAV:  11    -0.329499203854E+02   -0.30450E-08   -0.21442E-09  6928   0.457E-04
  10 F= -.32949920E+02 E0= -.32950424E+02  d E =-.401860E-04  mag=     0.0000
 trial-energy change:   -0.000040  1 .order   -0.000045   -0.000064   -0.000026
 step:   1.6815(harm=  1.6815)  dis= 0.00020  next Energy=   -32.949934 (dE=-0.543E-04)
 bond charge predicted
       N       E                     dE             d eps       ncg     rms          rms(c)
DAV:   1    -0.329502332511E+02   -0.31287E-03   -0.87379E-03 14752   0.649E-01    0.154E-01
DAV:   2    -0.329500922454E+02    0.14101E-03   -0.12278E-03 14688   0.439E-01    0.131E-01
DAV:   3    -0.329500353751E+02    0.56870E-04   -0.93502E-04 14784   0.572E-01    0.136E-01
DAV:   4    -0.329499619223E+02    0.73453E-04   -0.54748E-04 14608   0.495E-01    0.803E-02
DAV:   5    -0.329499005284E+02    0.61394E-04   -0.12273E-04 18016   0.192E-01    0.116E-02
DAV:   6    -0.329499009852E+02   -0.45676E-06   -0.16123E-05 15120   0.491E-02    0.112E-02
DAV:   7    -0.329499002145E+02    0.77071E-06   -0.36668E-06 14544   0.344E-02    0.245E-03
DAV:   8    -0.329499003138E+02   -0.99290E-07   -0.47130E-07 14576   0.807E-03    0.120E-03
DAV:   9    -0.329499003410E+02   -0.27247E-07   -0.35905E-08 12136   0.195E-03    0.407E-04
DAV:  10    -0.329499003541E+02   -0.13129E-07   -0.50797E-09  7072   0.926E-04    0.760E-05
DAV:  11    -0.329499003563E+02   -0.21737E-08   -0.11907E-09  6864   0.331E-04
  11 F= -.32949900E+02 E0= -.32950412E+02  d E =-.201569E-04  mag=     0.0000
 curvature:  -1.09 expect dE=-0.142E-04 dE for cont linesearch -0.125E-09
 trial: gam= 0.22128 g(F)=  0.114E-04 g(S)=  0.168E-05 ort =-0.979E-07 (trialstep = 0.113E+01)
 search vector abs. value=  0.171E-04
 bond charge predicted
       N       E                     dE             d eps       ncg     rms          rms(c)
DAV:   1    -0.329497978547E+02    0.10250E-03   -0.37808E-03 17552   0.181E+00    0.585E-02
DAV:   2    -0.329499334506E+02   -0.13560E-03   -0.16966E-03 14016   0.323E-01    0.432E-02
DAV:   3    -0.329499219111E+02    0.11539E-04   -0.10889E-04 15456   0.137E-01    0.314E-02
DAV:   4    -0.329499249054E+02   -0.29943E-05   -0.75450E-05 15184   0.165E-01    0.442E-02
DAV:   5    -0.329499111922E+02    0.13713E-04   -0.43395E-05 15200   0.120E-01    0.534E-03
DAV:   6    -0.329499122842E+02   -0.10921E-05   -0.64785E-06 18128   0.473E-02    0.135E-02
DAV:   7    -0.329499111415E+02    0.11427E-05   -0.25399E-06 14496   0.386E-02    0.143E-03
DAV:   8    -0.329499111311E+02    0.10417E-07   -0.27837E-07 14752   0.489E-03    0.774E-04
DAV:   9    -0.329499111218E+02    0.93532E-08   -0.15258E-08  7408   0.191E-03
  12 F= -.32949911E+02 E0= -.32950422E+02  d E =-.107654E-04  mag=    -0.0000
 trial-energy change:   -0.000011  1 .order   -0.000011   -0.000015   -0.000007
 step:   1.9802(harm=  2.0683)  dis= 0.00061  next Energy=   -32.949914 (dE=-0.133E-04)
 bond charge predicted
       N       E                     dE             d eps       ncg     rms          rms(c)
DAV:   1    -0.329498494481E+02    0.61683E-04   -0.21547E-03 17616   0.137E+00    0.441E-02
DAV:   2    -0.329499267326E+02   -0.77285E-04   -0.96487E-04 14016   0.243E-01    0.325E-02
DAV:   3    -0.329499200352E+02    0.66974E-05   -0.61673E-05 15456   0.103E-01    0.235E-02
DAV:   4    -0.329499218016E+02   -0.17663E-05   -0.42523E-05 15248   0.125E-01    0.335E-02
DAV:   5    -0.329499139808E+02    0.78208E-05   -0.24690E-05 15232   0.909E-02    0.401E-03
DAV:   6    -0.329499145681E+02   -0.58735E-06   -0.36567E-06 18096   0.352E-02    0.100E-02
DAV:   7    -0.329499139370E+02    0.63113E-06   -0.14105E-06 14544   0.286E-02    0.108E-03
DAV:   8    -0.329499139273E+02    0.97079E-08   -0.15582E-07 14288   0.366E-03    0.591E-04
DAV:   9    -0.329499139185E+02    0.88075E-08   -0.87010E-09  7008   0.147E-03
  13 F= -.32949914E+02 E0= -.32950424E+02  d E =-.135622E-04  mag=     0.0000
 curvature:  -1.35 expect dE=-0.277E-05 dE for cont linesearch -0.246E-07
 trial: gam= 0.11358 g(F)=  0.122E-05 g(S)=  0.837E-06 ort = 0.559E-06 (trialstep = 0.130E+01)
 search vector abs. value=  0.240E-05
 reached required accuracy - stopping structural energy minimisation
 writing wavefunctions
