   8   8   0   0
  0.1169629E+02  0.6202742E-09  0.6202742E-09  0.2753191E-09  0.5000000E-15
  1.000000000000000E-004
  CAR 
 unknown system                          
     26.00520751    -58.62522516  301      8.85772538      1.00000000
    -58.625  0.0000E+00  0.0000E+00  0.0000E+00  0.0000E+00
    -58.343  0.0000E+00  0.0000E+00  0.0000E+00  0.0000E+00
    -58.061  0.0000E+00  0.0000E+00  0.0000E+00  0.0000E+00
    -57.779  0.0000E+00  0.0000E+00  0.0000E+00  0.0000E+00
    -57.497  0.0000E+00  0.0000E+00  0.0000E+00  0.0000E+00
    -57.215  0.0000E+00  0.0000E+00  0.0000E+00  0.0000E+00
    -56.933  0.0000E+00  0.0000E+00  0.0000E+00  0.0000E+00
    -56.651  0.0000E+00  0.0000E+00  0.0000E+00  0.0000E+00
    -56.368  0.0000E+00  0.0000E+00  0.0000E+00  0.0000E+00
    -56.086  0.0000E+00  0.0000E+00  0.0000E+00  0.0000E+00
    -55.804  0.0000E+00  0.0000E+00  0.0000E+00  0.0000E+00
    -55.522  0.0000E+00  0.0000E+00  0.0000E+00  0.0000E+00
    -55.240  0.0000E+00  0.0000E+00  0.0000E+00  0.0000E+00
    -54.958  0.0000E+00  0.0000E+00  0.0000E+00  0.0000E+00
    -54.676  0.2340E+03  0.2340E+03  0.5983E+01  0.5983E+01
    -54.394  0.0000E+00  0.0000E+00  0.1200E+02  0.1200E+02
    -54.112  0.0000E+00  0.0000E+00  0.1500E+02  0.1500E+02
    -53.830  0.0000E+00  0.0000E+00  0.1500E+02  0.1500E+02
    -53.547  0.0000E+00  0.0000E+00  0.1500E+02  0.1500E+02
    -53.265  0.0000E+00  0.0000E+00  0.1500E+02  0.1500E+02
    -52.983  0.0000E+00  0.0000E+00  0.1500E+02  0.1500E+02
    -52.701  0.0000E+00  0.0000E+00  0.1500E+02  0.1500E+02
    -52.419  0.0000E+00  0.0000E+00  0.1500E+02  0.1500E+02
    -52.137  0.0000E+00  0.0000E+00  0.1500E+02  0.1500E+02
    -51.855  0.0000E+00  0.0000E+00  0.1500E+02  0.1500E+02
    -51.573  0.0000E+00  0.0000E+00  0.1500E+02  0.1500E+02
    -51.291  0.0000E+00  0.0000E+00  0.1500E+02  0.1500E+02
    -51.008  0.0000E+00  0.0000E+00  0.1500E+02  0.1500E+02
    -50.726  0.0000E+00  0.0000E+00  0.1500E+02  0.1500E+02
    -50.444  0.0000E+00  0.0000E+00  0.1500E+02  0.1500E+02
    -50.162  0.0000E+00  0.0000E+00  0.1500E+02  0.1500E+02
    -49.880  0.0000E+00  0.0000E+00  0.1500E+02  0.1500E+02
    -49.598  0.0000E+00  0.0000E+00  0.1500E+02  0.1500E+02
    -49.316  0.0000E+00  0.0000E+00  0.1500E+02  0.1500E+02
    -49.034  0.0000E+00  0.0000E+00  0.1500E+02  0.1500E+02
    -48.752  0.0000E+00  0.0000E+00  0.1500E+02  0.1500E+02
    -48.470  0.0000E+00  0.0000E+00  0.1500E+02  0.1500E+02
    -48.187  0.0000E+00  0.0000E+00  0.1500E+02  0.1500E+02
    -47.905  0.0000E+00  0.0000E+00  0.1500E+02  0.1500E+02
    -47.623  0.0000E+00  0.0000E+00  0.1500E+02  0.1500E+02
    -47.341  0.0000E+00  0.0000E+00  0.1500E+02  0.1500E+02
    -47.059  0.0000E+00  0.0000E+00  0.1500E+02  0.1500E+02
    -46.777  0.0000E+00  0.0000E+00  0.1500E+02  0.1500E+02
    -46.495  0.0000E+00  0.0000E+00  0.1500E+02  0.1500E+02
    -46.213  0.0000E+00  0.0000E+00  0.1500E+02  0.1500E+02
    -45.931  0.0000E+00  0.0000E+00  0.1500E+02  0.1500E+02
    -45.649  0.0000E+00  0.0000E+00  0.1500E+02  0.1500E+02
    -45.366  0.0000E+00  0.0000E+00  0.1500E+02  0.1500E+02
    -45.084  0.0000E+00  0.0000E+00  0.1500E+02  0.1500E+02
    -44.802  0.0000E+00  0.0000E+00  0.1500E+02  0.1500E+02
    -44.520  0.0000E+00  0.0000E+00  0.1500E+02  0.1500E+02
    -44.238  0.0000E+00  0.0000E+00  0.1500E+02  0.1500E+02
    -43.956  0.0000E+00  0.0000E+00  0.1500E+02  0.1500E+02
    -43.674  0.0000E+00  0.0000E+00  0.1500E+02  0.1500E+02
    -43.392  0.0000E+00  0.0000E+00  0.1500E+02  0.1500E+02
    -43.110  0.0000E+00  0.0000E+00  0.1500E+02  0.1500E+02
    -42.828  0.0000E+00  0.0000E+00  0.1500E+02  0.1500E+02
    -42.545  0.0000E+00  0.0000E+00  0.1500E+02  0.1500E+02
    -42.263  0.0000E+00  0.0000E+00  0.1500E+02  0.1500E+02
    -41.981  0.0000E+00  0.0000E+00  0.1500E+02  0.1500E+02
    -41.699  0.0000E+00  0.0000E+00  0.1500E+02  0.1500E+02
    -41.417  0.0000E+00  0.0000E+00  0.1500E+02  0.1500E+02
    -41.135  0.0000E+00  0.0000E+00  0.1500E+02  0.1500E+02
    -40.853  0.0000E+00  0.0000E+00  0.1500E+02  0.1500E+02
    -40.571  0.0000E+00  0.0000E+00  0.1500E+02  0.1500E+02
    -40.289  0.0000E+00  0.0000E+00  0.1500E+02  0.1500E+02
    -40.007  0.0000E+00  0.0000E+00  0.1500E+02  0.1500E+02
    -39.724  0.0000E+00  0.0000E+00  0.1500E+02  0.1500E+02
    -39.442  0.0000E+00  0.0000E+00  0.1500E+02  0.1500E+02
    -39.160  0.0000E+00  0.0000E+00  0.1500E+02  0.1500E+02
    -38.878  0.0000E+00  0.0000E+00  0.1500E+02  0.1500E+02
    -38.596  0.0000E+00  0.0000E+00  0.1500E+02  0.1500E+02
    -38.314  0.0000E+00  0.0000E+00  0.1500E+02  0.1500E+02
    -38.032  0.0000E+00  0.0000E+00  0.1500E+02  0.1500E+02
    -37.750  0.0000E+00  0.0000E+00  0.1500E+02  0.1500E+02
    -37.468  0.0000E+00  0.0000E+00  0.1500E+02  0.1500E+02
    -37.186  0.0000E+00  0.0000E+00  0.1500E+02  0.1500E+02
    -36.903  0.0000E+00  0.0000E+00  0.1500E+02  0.1500E+02
    -36.621  0.0000E+00  0.0000E+00  0.1500E+02  0.1500E+02
    -36.339  0.0000E+00  0.0000E+00  0.1500E+02  0.1500E+02
    -36.057  0.0000E+00  0.0000E+00  0.1500E+02  0.1500E+02
    -35.775  0.0000E+00  0.0000E+00  0.1500E+02  0.1500E+02
    -35.493  0.0000E+00  0.0000E+00  0.1500E+02  0.1500E+02
    -35.211  0.0000E+00  0.0000E+00  0.1500E+02  0.1500E+02
    -34.929  0.0000E+00  0.0000E+00  0.1500E+02  0.1500E+02
    -34.647  0.0000E+00  0.0000E+00  0.1500E+02  0.1500E+02
    -34.365  0.0000E+00  0.0000E+00  0.1500E+02  0.1500E+02
    -34.082  0.0000E+00  0.0000E+00  0.1500E+02  0.1500E+02
    -33.800  0.0000E+00  0.0000E+00  0.1500E+02  0.1500E+02
    -33.518  0.0000E+00  0.0000E+00  0.1500E+02  0.1500E+02
    -33.236  0.0000E+00  0.0000E+00  0.1500E+02  0.1500E+02
    -32.954  0.0000E+00  0.0000E+00  0.1500E+02  0.1500E+02
    -32.672  0.0000E+00  0.0000E+00  0.1500E+02  0.1500E+02
    -32.390  0.0000E+00  0.0000E+00  0.1500E+02  0.1500E+02
    -32.108  0.0000E+00  0.0000E+00  0.1500E+02  0.1500E+02
    -31.826  0.0000E+00  0.0000E+00  0.1500E+02  0.1500E+02
    -31.543  0.0000E+00  0.0000E+00  0.1500E+02  0.1500E+02
    -31.261  0.0000E+00  0.0000E+00  0.1500E+02  0.1500E+02
    -30.979  0.0000E+00  0.0000E+00  0.1500E+02  0.1500E+02
    -30.697  0.0000E+00  0.0000E+00  0.1500E+02  0.1500E+02
    -30.415  0.0000E+00  0.0000E+00  0.1500E+02  0.1500E+02
    -30.133  0.0000E+00  0.0000E+00  0.1500E+02  0.1500E+02
    -29.851  0.0000E+00  0.0000E+00  0.1500E+02  0.1500E+02
    -29.569  0.0000E+00  0.0000E+00  0.1500E+02  0.1500E+02
    -29.287  0.0000E+00  0.0000E+00  0.1500E+02  0.1500E+02
    -29.005  0.0000E+00  0.0000E+00  0.1500E+02  0.1500E+02
    -28.722  0.0000E+00  0.0000E+00  0.1500E+02  0.1500E+02
    -28.440  0.0000E+00  0.0000E+00  0.1500E+02  0.1500E+02
    -28.158  0.0000E+00  0.0000E+00  0.1500E+02  0.1500E+02
    -27.876  0.0000E+00  0.0000E+00  0.1500E+02  0.1500E+02
    -27.594  0.0000E+00  0.0000E+00  0.1500E+02  0.1500E+02
    -27.312  0.0000E+00  0.0000E+00  0.1500E+02  0.1500E+02
    -27.030  0.0000E+00  0.0000E+00  0.1500E+02  0.1500E+02
    -26.748  0.0000E+00  0.0000E+00  0.1500E+02  0.1500E+02
    -26.466  0.0000E+00  0.0000E+00  0.1500E+02  0.1500E+02
    -26.184  0.0000E+00  0.0000E+00  0.1500E+02  0.1500E+02
    -25.901  0.0000E+00  0.0000E+00  0.1500E+02  0.1500E+02
    -25.619  0.0000E+00  0.0000E+00  0.1500E+02  0.1500E+02
    -25.337  0.0000E+00  0.0000E+00  0.1500E+02  0.1500E+02
    -25.055  0.0000E+00  0.0000E+00  0.1500E+02  0.1500E+02
    -24.773  0.0000E+00  0.0000E+00  0.1500E+02  0.1500E+02
    -24.491  0.0000E+00  0.0000E+00  0.1500E+02  0.1500E+02
    -24.209  0.0000E+00  0.0000E+00  0.1500E+02  0.1500E+02
    -23.927  0.0000E+00  0.0000E+00  0.1500E+02  0.1500E+02
    -23.645  0.0000E+00  0.0000E+00  0.1500E+02  0.1500E+02
    -23.363  0.0000E+00  0.0000E+00  0.1500E+02  0.1500E+02
    -23.080  0.0000E+00  0.0000E+00  0.1500E+02  0.1500E+02
    -22.798  0.0000E+00  0.0000E+00  0.1500E+02  0.1500E+02
    -22.516  0.0000E+00  0.0000E+00  0.1500E+02  0.1500E+02
    -22.234  0.0000E+00  0.0000E+00  0.1500E+02  0.1500E+02
    -21.952  0.0000E+00  0.0000E+00  0.1500E+02  0.1500E+02
    -21.670  0.0000E+00  0.0000E+00  0.1500E+02  0.1500E+02
    -21.388  0.0000E+00  0.0000E+00  0.1500E+02  0.1500E+02
    -21.106  0.0000E+00  0.0000E+00  0.1500E+02  0.1500E+02
    -20.824  0.0000E+00  0.0000E+00  0.1500E+02  0.1500E+02
    -20.542  0.0000E+00  0.0000E+00  0.1500E+02  0.1500E+02
    -20.259  0.0000E+00  0.0000E+00  0.1500E+02  0.1500E+02
    -19.977  0.0000E+00  0.0000E+00  0.1500E+02  0.1500E+02
    -19.695  0.0000E+00  0.0000E+00  0.1500E+02  0.1500E+02
    -19.413  0.0000E+00  0.0000E+00  0.1500E+02  0.1500E+02
    -19.131  0.0000E+00  0.0000E+00  0.1500E+02  0.1500E+02
    -18.849  0.0000E+00  0.0000E+00  0.1500E+02  0.1500E+02
    -18.567  0.0000E+00  0.0000E+00  0.1500E+02  0.1500E+02
    -18.285  0.0000E+00  0.0000E+00  0.1500E+02  0.1500E+02
    -18.003  0.0000E+00  0.0000E+00  0.1500E+02  0.1500E+02
    -17.721  0.0000E+00  0.0000E+00  0.1500E+02  0.1500E+02
    -17.438  0.0000E+00  0.0000E+00  0.1500E+02  0.1500E+02
    -17.156  0.0000E+00  0.0000E+00  0.1500E+02  0.1500E+02
    -16.874  0.0000E+00  0.0000E+00  0.1500E+02  0.1500E+02
    -16.592  0.0000E+00  0.0000E+00  0.1500E+02  0.1500E+02
    -16.310  0.0000E+00  0.0000E+00  0.1500E+02  0.1500E+02
    -16.028  0.0000E+00  0.0000E+00  0.1500E+02  0.1500E+02
    -15.746  0.0000E+00  0.0000E+00  0.1500E+02  0.1500E+02
    -15.464  0.0000E+00  0.0000E+00  0.1500E+02  0.1500E+02
    -15.182  0.0000E+00  0.0000E+00  0.1500E+02  0.1500E+02
    -14.900  0.0000E+00  0.0000E+00  0.1500E+02  0.1500E+02
    -14.617  0.0000E+00  0.0000E+00  0.1500E+02  0.1500E+02
    -14.335  0.0000E+00  0.0000E+00  0.1500E+02  0.1500E+02
    -14.053  0.0000E+00  0.0000E+00  0.1500E+02  0.1500E+02
    -13.771  0.0000E+00  0.0000E+00  0.1500E+02  0.1500E+02
    -13.489  0.0000E+00  0.0000E+00  0.1500E+02  0.1500E+02
    -13.207  0.0000E+00  0.0000E+00  0.1500E+02  0.1500E+02
    -12.925  0.0000E+00  0.0000E+00  0.1500E+02  0.1500E+02
    -12.643  0.0000E+00  0.0000E+00  0.1500E+02  0.1500E+02
    -12.361  0.0000E+00  0.0000E+00  0.1500E+02  0.1500E+02
    -12.078  0.0000E+00  0.0000E+00  0.1500E+02  0.1500E+02
    -11.796  0.0000E+00  0.0000E+00  0.1500E+02  0.1500E+02
    -11.514  0.0000E+00  0.0000E+00  0.1500E+02  0.1500E+02
    -11.232  0.0000E+00  0.0000E+00  0.1500E+02  0.1500E+02
    -10.950  0.0000E+00  0.0000E+00  0.1500E+02  0.1500E+02
    -10.668  0.0000E+00  0.0000E+00  0.1500E+02  0.1500E+02
    -10.386  0.0000E+00  0.0000E+00  0.1500E+02  0.1500E+02
    -10.104  0.0000E+00  0.0000E+00  0.1500E+02  0.1500E+02
     -9.822  0.0000E+00  0.0000E+00  0.1500E+02  0.1500E+02
     -9.540  0.0000E+00  0.0000E+00  0.1500E+02  0.1500E+02
     -9.257  0.0000E+00  0.0000E+00  0.1500E+02  0.1500E+02
     -8.975  0.0000E+00  0.0000E+00  0.1500E+02  0.1500E+02
     -8.693  0.0000E+00  0.0000E+00  0.1500E+02  0.1500E+02
     -8.411  0.0000E+00  0.0000E+00  0.1500E+02  0.1500E+02
     -8.129  0.0000E+00  0.0000E+00  0.1500E+02  0.1500E+02
     -7.847  0.0000E+00  0.0000E+00  0.1500E+02  0.1500E+02
     -7.565  0.0000E+00  0.0000E+00  0.1500E+02  0.1500E+02
     -7.283  0.0000E+00  0.0000E+00  0.1500E+02  0.1500E+02
     -7.001  0.0000E+00  0.0000E+00  0.1500E+02  0.1500E+02
     -6.719  0.0000E+00  0.0000E+00  0.1500E+02  0.1500E+02
     -6.436  0.0000E+00  0.0000E+00  0.1500E+02  0.1500E+02
     -6.154  0.0000E+00  0.0000E+00  0.1500E+02  0.1500E+02
     -5.872  0.0000E+00  0.0000E+00  0.1500E+02  0.1500E+02
     -5.590  0.0000E+00  0.0000E+00  0.1500E+02  0.1500E+02
     -5.308  0.0000E+00  0.0000E+00  0.1500E+02  0.1500E+02
     -5.026  0.0000E+00  0.0000E+00  0.1500E+02  0.1500E+02
     -4.744  0.0000E+00  0.0000E+00  0.1500E+02  0.1500E+02
     -4.462  0.0000E+00  0.0000E+00  0.1500E+02  0.1500E+02
     -4.180  0.0000E+00  0.0000E+00  0.1500E+02  0.1500E+02
     -3.898  0.0000E+00  0.0000E+00  0.1500E+02  0.1500E+02
     -3.615  0.0000E+00  0.0000E+00  0.1500E+02  0.1500E+02
     -3.333  0.0000E+00  0.0000E+00  0.1500E+02  0.1500E+02
     -3.051  0.0000E+00  0.0000E+00  0.1500E+02  0.1500E+02
     -2.769  0.0000E+00  0.0000E+00  0.1500E+02  0.1500E+02
     -2.487  0.0000E+00  0.0000E+00  0.1500E+02  0.1500E+02
     -2.205  0.0000E+00  0.0000E+00  0.1500E+02  0.1500E+02
     -1.923  0.0000E+00  0.0000E+00  0.1500E+02  0.1500E+02
     -1.641  0.1065E+00  0.1065E+00  0.1501E+02  0.1501E+02
     -1.359  0.2229E+00  0.2229E+00  0.1506E+02  0.1506E+02
     -1.077  0.3296E+00  0.3296E+00  0.1514E+02  0.1514E+02
     -0.794  0.5206E+00  0.5206E+00  0.1528E+02  0.1528E+02
     -0.512  0.2849E+00  0.2849E+00  0.1537E+02  0.1537E+02
     -0.230  0.2928E+00  0.2928E+00  0.1545E+02  0.1545E+02
      0.052  0.5401E+00  0.5401E+00  0.1556E+02  0.1556E+02
      0.334  0.4782E+00  0.4782E+00  0.1571E+02  0.1571E+02
      0.616  0.5127E+00  0.5127E+00  0.1585E+02  0.1585E+02
      0.898  0.5624E+00  0.5624E+00  0.1599E+02  0.1599E+02
      1.180  0.6214E+00  0.6214E+00  0.1616E+02  0.1616E+02
      1.462  0.7223E+00  0.7223E+00  0.1635E+02  0.1635E+02
      1.744  0.8182E+00  0.8182E+00  0.1657E+02  0.1657E+02
      2.027  0.9689E+00  0.9689E+00  0.1681E+02  0.1681E+02
      2.309  0.7868E+00  0.7868E+00  0.1706E+02  0.1706E+02
      2.591  0.7013E+00  0.7013E+00  0.1729E+02  0.1729E+02
      2.873  0.9410E+00  0.9410E+00  0.1752E+02  0.1752E+02
      3.155  0.1037E+01  0.1037E+01  0.1781E+02  0.1781E+02
      3.437  0.1094E+01  0.1094E+01  0.1809E+02  0.1809E+02
      3.719  0.1664E+01  0.1664E+01  0.1839E+02  0.1839E+02
      4.001  0.1364E+01  0.1364E+01  0.1879E+02  0.1879E+02
      4.283  0.1391E+01  0.1391E+01  0.1930E+02  0.1930E+02
      4.565  0.1553E+01  0.1553E+01  0.1967E+02  0.1967E+02
      4.848  0.2879E+01  0.2879E+01  0.2027E+02  0.2027E+02
      5.130  0.2849E+01  0.2849E+01  0.2117E+02  0.2117E+02
      5.412  0.4237E+01  0.4237E+01  0.2228E+02  0.2228E+02
      5.694  0.7104E+01  0.7104E+01  0.2348E+02  0.2348E+02
      5.976  0.7233E+01  0.7233E+01  0.2523E+02  0.2523E+02
      6.258  0.5080E+01  0.5080E+01  0.2752E+02  0.2752E+02
      6.540  0.7633E+01  0.7633E+01  0.2943E+02  0.2943E+02
      6.822  0.1107E+02  0.1107E+02  0.3154E+02  0.3154E+02
      7.104  0.1049E+02  0.1049E+02  0.3423E+02  0.3423E+02
      7.387  0.1073E+02  0.1073E+02  0.3699E+02  0.3699E+02
      7.669  0.8276E+01  0.8276E+01  0.3899E+02  0.3899E+02
      7.951  0.4826E+01  0.4826E+01  0.4069E+02  0.4069E+02
      8.233  0.5405E+01  0.5405E+01  0.4213E+02  0.4213E+02
      8.515  0.3177E+01  0.3177E+01  0.4347E+02  0.4347E+02
      8.797  0.2149E+01  0.2149E+01  0.4439E+02  0.4439E+02
      9.079  0.1981E+01  0.1981E+01  0.4493E+02  0.4493E+02
      9.361  0.2321E+01  0.2321E+01  0.4554E+02  0.4554E+02
      9.643  0.1309E+01  0.1309E+01  0.4599E+02  0.4599E+02
      9.925  0.1137E+01  0.1137E+01  0.4634E+02  0.4634E+02
     10.208  0.9802E+00  0.9802E+00  0.4664E+02  0.4664E+02
     10.490  0.1223E+01  0.1223E+01  0.4695E+02  0.4695E+02
     10.772  0.1122E+01  0.1122E+01  0.4729E+02  0.4729E+02
     11.054  0.7129E+00  0.7129E+00  0.4754E+02  0.4754E+02
     11.336  0.6213E+00  0.6213E+00  0.4774E+02  0.4774E+02
     11.618  0.6794E+00  0.6794E+00  0.4792E+02  0.4792E+02
     11.900  0.1278E+01  0.1278E+01  0.4817E+02  0.4817E+02
     12.182  0.1499E+01  0.1499E+01  0.4858E+02  0.4858E+02
     12.464  0.1545E+01  0.1545E+01  0.4903E+02  0.4903E+02
     12.746  0.2049E+01  0.2049E+01  0.4944E+02  0.4944E+02
     13.029  0.1270E+01  0.1270E+01  0.4998E+02  0.4998E+02
     13.311  0.1115E+01  0.1115E+01  0.5029E+02  0.5029E+02
     13.593  0.1528E+01  0.1528E+01  0.5066E+02  0.5066E+02
     13.875  0.1171E+01  0.1171E+01  0.5110E+02  0.5110E+02
     14.157  0.1372E+01  0.1372E+01  0.5141E+02  0.5141E+02
     14.439  0.1343E+01  0.1343E+01  0.5182E+02  0.5182E+02
     14.721  0.1568E+01  0.1568E+01  0.5225E+02  0.5225E+02
     15.003  0.1430E+01  0.1430E+01  0.5270E+02  0.5270E+02
     15.285  0.1519E+01  0.1519E+01  0.5309E+02  0.5309E+02
     15.567  0.1481E+01  0.1481E+01  0.5353E+02  0.5353E+02
     15.850  0.1380E+01  0.1380E+01  0.5394E+02  0.5394E+02
     16.132  0.1625E+01  0.1625E+01  0.5433E+02  0.5433E+02
     16.414  0.1333E+01  0.1333E+01  0.5474E+02  0.5474E+02
     16.696  0.1582E+01  0.1582E+01  0.5516E+02  0.5516E+02
     16.978  0.1629E+01  0.1629E+01  0.5561E+02  0.5561E+02
     17.260  0.1542E+01  0.1542E+01  0.5607E+02  0.5607E+02
     17.542  0.1835E+01  0.1835E+01  0.5655E+02  0.5655E+02
     17.824  0.1371E+01  0.1371E+01  0.5701E+02  0.5701E+02
     18.106  0.1432E+01  0.1432E+01  0.5740E+02  0.5740E+02
     18.388  0.1337E+01  0.1337E+01  0.5778E+02  0.5778E+02
     18.671  0.1372E+01  0.1372E+01  0.5818E+02  0.5818E+02
     18.953  0.9887E+00  0.9887E+00  0.5851E+02  0.5851E+02
     19.235  0.9607E+00  0.9607E+00  0.5879E+02  0.5879E+02
     19.517  0.8759E+00  0.8758E+00  0.5906E+02  0.5906E+02
     19.799  0.7571E+00  0.7568E+00  0.5928E+02  0.5928E+02
     20.081  0.5853E+00  0.5846E+00  0.5947E+02  0.5947E+02
     20.363  0.6520E+00  0.6510E+00  0.5963E+02  0.5963E+02
     20.645  0.4289E+00  0.4276E+00  0.5978E+02  0.5978E+02
     20.927  0.4172E+00  0.4156E+00  0.5989E+02  0.5989E+02
     21.209  0.1386E+00  0.1376E+00  0.5998E+02  0.5998E+02
     21.492  0.2288E-01  0.2557E-01  0.6000E+02  0.5999E+02
     21.774  0.4434E-02  0.7587E-02  0.6000E+02  0.6000E+02
     22.056  0.0000E+00  0.5395E-03  0.6000E+02  0.6000E+02
     22.338  0.0000E+00  0.0000E+00  0.6000E+02  0.6000E+02
     22.620  0.0000E+00  0.0000E+00  0.6000E+02  0.6000E+02
     22.902  0.0000E+00  0.0000E+00  0.6000E+02  0.6000E+02
     23.184  0.0000E+00  0.0000E+00  0.6000E+02  0.6000E+02
     23.466  0.0000E+00  0.0000E+00  0.6000E+02  0.6000E+02
     23.748  0.0000E+00  0.0000E+00  0.6000E+02  0.6000E+02
     24.030  0.0000E+00  0.0000E+00  0.6000E+02  0.6000E+02
     24.313  0.0000E+00  0.0000E+00  0.6000E+02  0.6000E+02
     24.595  0.0000E+00  0.0000E+00  0.6000E+02  0.6000E+02
     24.877  0.0000E+00  0.0000E+00  0.6000E+02  0.6000E+02
     25.159  0.0000E+00  0.0000E+00  0.6000E+02  0.6000E+02
     25.441  0.0000E+00  0.0000E+00  0.6000E+02  0.6000E+02
     25.723  0.0000E+00  0.0000E+00  0.6000E+02  0.6000E+02
     26.005  0.0000E+00  0.0000E+00  0.6000E+02  0.6000E+02
