       N       E                     dE             d eps       ncg     rms          rms(c)
DAV:   1     0.110877221046E+04    0.11088E+04   -0.51723E+04  9976   0.176E+03
DAV:   2     0.291898496179E+02   -0.10796E+04   -0.10342E+04  8532   0.570E+02
DAV:   3    -0.474363682174E+02   -0.76626E+02   -0.71144E+02  9416   0.171E+02
DAV:   4    -0.500118227222E+02   -0.25755E+01   -0.25578E+01  9504   0.302E+01
DAV:   5    -0.500747335638E+02   -0.62911E-01   -0.62896E-01  9712   0.459E+00    0.291E+01
DAV:   6    -0.615004711762E+02   -0.11426E+02   -0.15316E+02  9504   0.126E+02    0.369E+01
DAV:   7    -0.432131382533E+02    0.18287E+02   -0.48459E+01  9732   0.749E+01    0.566E+00
DAV:   8    -0.437509658016E+02   -0.53783E+00   -0.60134E+00 11056   0.239E+01    0.112E+01
DAV:   9    -0.432735823883E+02    0.47738E+00   -0.28206E+00  9396   0.141E+01    0.270E+00
DAV:  10    -0.432245113026E+02    0.49071E-01   -0.35132E-01 10652   0.491E+00    0.129E+00
DAV:  11    -0.432196174347E+02    0.48939E-02   -0.23450E-02  9240   0.154E+00    0.686E-01
DAV:  12    -0.432166022113E+02    0.30152E-02   -0.45128E-03 11240   0.657E-01    0.348E-01
DAV:  13    -0.432168293853E+02   -0.22717E-03   -0.15557E-03 10668   0.317E-01    0.239E-01
DAV:  14    -0.432172636000E+02   -0.43421E-03   -0.14122E-03 11340   0.338E-01    0.221E-01
DAV:  15    -0.432174206892E+02   -0.15709E-03   -0.44617E-04 11124   0.150E-01    0.185E-01
DAV:  16    -0.432172290359E+02    0.19165E-03   -0.69902E-04 11252   0.246E-01    0.590E-02
DAV:  17    -0.432172340766E+02   -0.50407E-05   -0.13354E-04 10612   0.100E-01    0.116E-02
DAV:  18    -0.432172366464E+02   -0.25698E-05   -0.17662E-05  9516   0.313E-02    0.673E-03
DAV:  19    -0.432172367211E+02   -0.74717E-07   -0.11440E-06  9384   0.779E-03    0.425E-03
DAV:  20    -0.432172365178E+02    0.20329E-06   -0.12193E-07 10040   0.338E-03    0.232E-03
DAV:  21    -0.432172364929E+02    0.24917E-07   -0.15721E-07  8744   0.338E-03    0.986E-04
DAV:  22    -0.432172365024E+02   -0.95060E-08   -0.22251E-08  5924   0.132E-03
   1 F= -.43217237E+02 E0= -.43216876E+02  d E =-.432172E+02  mag=     0.3180
       N       E                     dE             d eps       ncg     rms          rms(c)
DAV:   1    -0.136422045575E+03   -0.93205E+02   -0.10272E+03  8696   0.361E+02    0.799E+01
DAV:   2    -0.104091942521E+03    0.32330E+02   -0.75714E+02  9672   0.233E+02    0.669E+01
DAV:   3    -0.535332264892E+02    0.50559E+02   -0.29129E+02  9608   0.151E+02    0.287E+01
DAV:   4    -0.473762080007E+02    0.61570E+01   -0.47391E+01  9452   0.588E+01    0.184E+01
DAV:   5    -0.443010195444E+02    0.30752E+01   -0.10061E+01 10104   0.336E+01    0.678E+00
DAV:   6    -0.442927524498E+02    0.82671E-02   -0.33096E+00 10608   0.272E+01    0.133E+01
DAV:   7    -0.437077390847E+02    0.58501E+00   -0.71873E+00 10312   0.133E+01    0.334E+00
DAV:   8    -0.436374239115E+02    0.70315E-01   -0.21002E-01  9628   0.447E+00    0.125E+00
DAV:   9    -0.436312779236E+02    0.61460E-02   -0.24752E-02  8980   0.106E+00    0.632E-01
DAV:  10    -0.436297762455E+02    0.15017E-02   -0.12682E-02 12132   0.880E-01    0.308E-01
DAV:  11    -0.436297230739E+02    0.53172E-04   -0.13444E-03  9168   0.240E-01    0.265E-01
DAV:  12    -0.436295293782E+02    0.19370E-03   -0.40704E-04 10884   0.210E-01    0.123E-01
DAV:  13    -0.436295531337E+02   -0.23756E-04   -0.84991E-05 11168   0.609E-02    0.745E-02
DAV:  14    -0.436295492605E+02    0.38732E-05   -0.31528E-05 10468   0.411E-02    0.689E-02
DAV:  15    -0.436295368588E+02    0.12402E-04   -0.14530E-05 10416   0.303E-02    0.575E-02
DAV:  16    -0.436295331912E+02    0.36677E-05   -0.18208E-05 10740   0.287E-02    0.401E-02
DAV:  17    -0.436295365377E+02   -0.33465E-05   -0.69569E-06 10104   0.218E-02    0.377E-02
DAV:  18    -0.436295360304E+02    0.50727E-06   -0.28155E-06 10956   0.137E-02    0.300E-02
DAV:  19    -0.436295357796E+02    0.25085E-06   -0.85864E-06 10572   0.209E-02    0.131E-02
DAV:  20    -0.436295371469E+02   -0.13673E-05   -0.13216E-06  9844   0.869E-03    0.128E-02
DAV:  21    -0.436295366895E+02    0.45736E-06   -0.12676E-06 10204   0.906E-03    0.680E-03
DAV:  22    -0.436295367416E+02   -0.52085E-07   -0.45042E-07  9552   0.405E-03    0.295E-03
DAV:  23    -0.436295367600E+02   -0.18401E-07   -0.63838E-08  7840   0.201E-03    0.236E-03
DAV:  24    -0.436295367247E+02    0.35361E-07   -0.12278E-07  8708   0.274E-03    0.993E-04
DAV:  25    -0.436295367287E+02   -0.40527E-08   -0.11513E-08  4820   0.892E-04
   2 F= -.43629537E+02 E0= -.43628150E+02  d E =-.412300E+00  mag=     0.0000
       N       E                     dE             d eps       ncg     rms          rms(c)
DAV:   1    -0.593027131239E+02   -0.15673E+02   -0.14401E+02  9080   0.119E+02    0.404E+01
DAV:   2    -0.762755264220E+02   -0.16973E+02   -0.25176E+02  9360   0.161E+02    0.438E+01
DAV:   3    -0.441255845067E+02    0.32150E+02   -0.86496E+01  9400   0.940E+01    0.544E+00
DAV:   4    -0.441318533875E+02   -0.62689E-02   -0.38958E+00 10696   0.163E+01    0.598E+00
DAV:   5    -0.439478817190E+02    0.18397E+00   -0.13968E+00  9864   0.125E+01    0.434E+00
DAV:   6    -0.437964769887E+02    0.15140E+00   -0.37256E-01  9384   0.628E+00    0.105E+00
DAV:   7    -0.437922058651E+02    0.42711E-02   -0.43554E-02 10568   0.205E+00    0.461E-01
DAV:   8    -0.437909942870E+02    0.12116E-02   -0.48074E-03  9656   0.652E-01    0.128E-01
DAV:   9    -0.437908620412E+02    0.13225E-03   -0.39446E-04 10192   0.155E-01    0.629E-02
DAV:  10    -0.437908430711E+02    0.18970E-04   -0.10446E-04 10980   0.737E-02    0.122E-02
DAV:  11    -0.437908427285E+02    0.34258E-06   -0.10845E-05  8968   0.273E-02    0.771E-03
DAV:  12    -0.437908418783E+02    0.85020E-06   -0.11310E-06  9492   0.996E-03    0.386E-03
DAV:  13    -0.437908418975E+02   -0.19143E-07   -0.77104E-08  9024   0.232E-03    0.414E-03
DAV:  14    -0.437908418741E+02    0.23410E-07   -0.10377E-07  8800   0.299E-03    0.369E-03
DAV:  15    -0.437908419383E+02   -0.64188E-07   -0.81391E-08  8260   0.212E-03    0.446E-03
DAV:  16    -0.437908419483E+02   -0.10023E-07   -0.17071E-08  4992   0.104E-03    0.533E-03
DAV:  17    -0.437908419078E+02    0.40502E-07   -0.87131E-09  4380   0.981E-04    0.495E-03
DAV:  18    -0.437908419008E+02    0.70140E-08   -0.22754E-09  4328   0.349E-04
   3 F= -.43790842E+02 E0= -.43789424E+02  d E =-.573605E+00  mag=    -0.0002
       N       E                     dE             d eps       ncg     rms          rms(c)
DAV:   1    -0.451788933467E+02   -0.13881E+01   -0.40529E+01  9960   0.945E+01    0.130E+01
DAV:   2    -0.463499142448E+02   -0.11710E+01   -0.22089E+01  9424   0.453E+01    0.136E+01
DAV:   3    -0.443922645043E+02    0.19576E+01   -0.82004E+00  9460   0.326E+01    0.865E+00
DAV:   4    -0.444372291907E+02   -0.44965E-01   -0.66716E+00  9448   0.203E+01    0.739E+00
DAV:   5    -0.439912304725E+02    0.44600E+00   -0.63637E-01 10636   0.110E+01    0.206E+00
DAV:   6    -0.439690961322E+02    0.22134E-01   -0.17982E-01 11340   0.354E+00    0.310E-01
DAV:   7    -0.439699248511E+02   -0.82872E-03   -0.16049E-02  9136   0.101E+00    0.121E-01
DAV:   8    -0.439700500571E+02   -0.12521E-03   -0.86029E-04 10416   0.250E-01    0.133E-01
DAV:   9    -0.439700004619E+02    0.49595E-04   -0.38258E-04 11892   0.148E-01    0.253E-02
DAV:  10    -0.439699978392E+02    0.26228E-05   -0.30894E-05 10704   0.539E-02    0.268E-02
DAV:  11    -0.439699934920E+02    0.43472E-05   -0.16730E-05 10844   0.358E-02    0.400E-03
DAV:  12    -0.439699936347E+02   -0.14270E-06   -0.10754E-06  9596   0.747E-03    0.571E-03
DAV:  13    -0.439699933064E+02    0.32829E-06   -0.81977E-07  9976   0.668E-03    0.368E-03
DAV:  14    -0.439699933586E+02   -0.52165E-07   -0.22639E-07  9348   0.288E-03    0.173E-03
DAV:  15    -0.439699933515E+02    0.70286E-08   -0.11034E-07  7580   0.250E-03    0.140E-03
DAV:  16    -0.439699933328E+02    0.18743E-07   -0.36990E-08  6220   0.166E-03    0.889E-04
DAV:  17    -0.439699933280E+02    0.47876E-08   -0.18202E-08  4476   0.959E-04
   4 F= -.43969993E+02 E0= -.43969256E+02  d E =-.179151E+00  mag=    -0.0001
       N       E                     dE             d eps       ncg     rms          rms(c)
DAV:   1    -0.474565360343E+02   -0.34865E+01   -0.10807E+02 10080   0.154E+02    0.213E+01
DAV:   2    -0.497785450125E+02   -0.23220E+01   -0.55508E+01  9400   0.735E+01    0.203E+01
DAV:   3    -0.448439809294E+02    0.49346E+01   -0.17737E+01  9424   0.502E+01    0.108E+01
DAV:   4    -0.455157577163E+02   -0.67178E+00   -0.16709E+01  9400   0.312E+01    0.122E+01
DAV:   5    -0.442030940885E+02    0.13127E+01   -0.13825E+00 10348   0.183E+01    0.429E+00
DAV:   6    -0.440909797160E+02    0.11211E+00   -0.63426E-01 11448   0.876E+00    0.762E-01
DAV:   7    -0.440935906631E+02   -0.26109E-02   -0.83975E-02  9096   0.252E+00    0.410E-01
DAV:   8    -0.440940522160E+02   -0.46155E-03   -0.13818E-02  9780   0.108E+00    0.432E-01
DAV:   9    -0.440932545647E+02    0.79765E-03   -0.46699E-03 10000   0.561E-01    0.477E-02
DAV:  10    -0.440932998825E+02   -0.45318E-04   -0.25269E-04 10928   0.130E-01    0.751E-02
DAV:  11    -0.440932743572E+02    0.25525E-04   -0.17140E-04  9420   0.121E-01    0.913E-03
DAV:  12    -0.440932740805E+02    0.27672E-06   -0.76344E-06  9112   0.216E-02    0.216E-03
DAV:  13    -0.440932740129E+02    0.67568E-07   -0.38541E-07  9172   0.530E-03    0.672E-04
DAV:  14    -0.440932739494E+02    0.63505E-07   -0.44839E-08  7912   0.195E-03    0.216E-04
DAV:  15    -0.440932739501E+02   -0.75306E-09   -0.27241E-09  4488   0.494E-04
   5 F= -.44093274E+02 E0= -.44092427E+02  d E =-.302432E+00  mag=    -0.0000
       N       E                     dE             d eps       ncg     rms          rms(c)
DAV:   1    -0.444957601414E+02   -0.40249E+00   -0.11619E+01  9980   0.481E+01    0.708E+00
DAV:   2    -0.447431299366E+02   -0.24737E+00   -0.62734E+00  9392   0.250E+01    0.698E+00
DAV:   3    -0.441735212826E+02    0.56961E+00   -0.21712E+00  9352   0.147E+01    0.292E+00
DAV:   4    -0.442955087120E+02   -0.12199E+00   -0.16335E+00  9680   0.107E+01    0.536E+00
DAV:   5    -0.441018543453E+02    0.19365E+00   -0.40982E-01  9696   0.868E+00    0.690E-01
DAV:   6    -0.441003398876E+02    0.15145E-02   -0.41871E-02 11420   0.155E+00    0.231E-01
DAV:   7    -0.441003025127E+02    0.37375E-04   -0.30355E-03  8980   0.547E-01    0.817E-02
DAV:   8    -0.441003302774E+02   -0.27765E-04   -0.45563E-04  9456   0.195E-01    0.592E-02
DAV:   9    -0.441003143854E+02    0.15892E-04   -0.98451E-05  9696   0.903E-02    0.764E-03
DAV:  10    -0.441003142182E+02    0.16722E-06   -0.49758E-06  9192   0.153E-02    0.259E-03
DAV:  11    -0.441003140248E+02    0.19333E-06   -0.33613E-07 10896   0.473E-03    0.469E-04
DAV:  12    -0.441003139795E+02    0.45333E-07   -0.27050E-08  7536   0.150E-03    0.216E-04
DAV:  13    -0.441003139584E+02    0.21097E-07   -0.32952E-09  4540   0.487E-04    0.104E-04
DAV:  14    -0.441003139545E+02    0.38635E-08   -0.79652E-10  4456   0.257E-04
   6 F= -.44100314E+02 E0= -.44100301E+02  d E =-.309472E+00  mag=    -0.0000
       N       E                     dE             d eps       ncg     rms          rms(c)
DAV:   1    -0.458755918019E+02   -0.17753E+01   -0.12046E+02  9088   0.242E+02    0.220E+01
DAV:   2    -0.528617561240E+02   -0.69862E+01   -0.12370E+02  9512   0.924E+01    0.320E+01
DAV:   3    -0.497409184695E+02    0.31208E+01   -0.11334E+02  9640   0.602E+01    0.223E+01
DAV:   4    -0.447005124294E+02    0.50404E+01   -0.11259E+01  9456   0.428E+01    0.780E+00
DAV:   5    -0.441919595040E+02    0.50855E+00   -0.28103E+00 10816   0.186E+01    0.387E+00
DAV:   6    -0.441728846167E+02    0.19075E-01   -0.13270E+00  9200   0.888E+00    0.244E+00
DAV:   7    -0.441328484620E+02    0.40036E-01   -0.18494E-01  9452   0.452E+00    0.269E-01
DAV:   8    -0.441335639681E+02   -0.71551E-03   -0.13832E-02  9040   0.975E-01    0.243E-01
DAV:   9    -0.441335512626E+02    0.12706E-04   -0.45020E-03  9608   0.590E-01    0.180E-01
DAV:  10    -0.441334089413E+02    0.14232E-03   -0.10751E-03  9904   0.272E-01    0.204E-02
DAV:  11    -0.441334099575E+02   -0.10163E-05   -0.49784E-05 10240   0.514E-02    0.841E-03
DAV:  12    -0.441334101661E+02   -0.20857E-06   -0.48893E-06  9556   0.186E-02    0.161E-03
DAV:  13    -0.441334102860E+02   -0.11992E-06   -0.20689E-07  9560   0.326E-03    0.496E-04
DAV:  14    -0.441334102947E+02   -0.86766E-08   -0.16167E-08  5400   0.118E-03
   7 F= -.44133410E+02 E0= -.44133683E+02  d E =-.330963E-01  mag=    -0.0000
       N       E                     dE             d eps       ncg     rms          rms(c)
DAV:   1    -0.443063211202E+02   -0.17291E+00   -0.13248E+01  9812   0.839E+01    0.797E+00
DAV:   2    -0.452569177365E+02   -0.95060E+00   -0.12580E+01  9500   0.334E+01    0.946E+00
DAV:   3    -0.444625820001E+02    0.79434E+00   -0.47145E+00  9376   0.275E+01    0.902E+00
DAV:   4    -0.442132183105E+02    0.24936E+00   -0.32955E+00  9368   0.129E+01    0.273E+00
DAV:   5    -0.441475569798E+02    0.65661E-01   -0.19617E-01 10888   0.459E+00    0.401E-01
DAV:   6    -0.441472882952E+02    0.26868E-03   -0.18224E-02  8960   0.979E-01    0.149E-01
DAV:   7    -0.441471721791E+02    0.11612E-03   -0.95725E-04  9568   0.279E-01    0.742E-02
DAV:   8    -0.441471613042E+02    0.10875E-04   -0.21018E-04 11264   0.112E-01    0.253E-02
DAV:   9    -0.441471574873E+02    0.38168E-05   -0.29031E-05  9344   0.504E-02    0.389E-03
DAV:  10    -0.441471572646E+02    0.22270E-06   -0.19760E-06  9644   0.116E-02    0.143E-03
DAV:  11    -0.441471572145E+02    0.50113E-07   -0.84006E-08  9008   0.254E-03    0.564E-04
DAV:  12    -0.441471571891E+02    0.25444E-07   -0.10055E-08  4816   0.789E-04    0.118E-04
DAV:  13    -0.441471571838E+02    0.52969E-08   -0.30439E-09  4588   0.571E-04
   8 F= -.44147157E+02 E0= -.44147811E+02  d E =-.468432E-01  mag=     0.0000
       N       E                     dE             d eps       ncg     rms          rms(c)
DAV:   1    -0.434603551462E+02    0.68680E+00   -0.20134E+01 10312   0.137E+02    0.598E+00
DAV:   2    -0.447817790871E+02   -0.13214E+01   -0.14683E+01  9736   0.308E+01    0.757E+00
DAV:   3    -0.444993082179E+02    0.28247E+00   -0.35780E+00  9520   0.251E+01    0.903E+00
DAV:   4    -0.441980275379E+02    0.30128E+00   -0.28689E+00  9392   0.120E+01    0.203E+00
DAV:   5    -0.441738158153E+02    0.24212E-01   -0.83559E-02  9600   0.278E+00    0.846E-01
DAV:   6    -0.441658167464E+02    0.79991E-02   -0.16131E-02 11152   0.115E+00    0.118E-01
DAV:   7    -0.441659323054E+02   -0.11556E-03   -0.25399E-03  9136   0.395E-01    0.489E-02
DAV:   8    -0.441659206150E+02    0.11690E-04   -0.10220E-04  9264   0.949E-02    0.181E-02
DAV:   9    -0.441659182772E+02    0.23378E-05   -0.14623E-05  9940   0.385E-02    0.453E-03
DAV:  10    -0.441659181919E+02    0.85245E-07   -0.20043E-06 10480   0.116E-02    0.298E-03
DAV:  11    -0.441659180456E+02    0.14627E-06   -0.57570E-07  9972   0.668E-03    0.143E-03
DAV:  12    -0.441659179870E+02    0.58615E-07   -0.63423E-08  7504   0.239E-03    0.226E-04
DAV:  13    -0.441659179776E+02    0.94515E-08   -0.39353E-09  4620   0.497E-04
   9 F= -.44165918E+02 E0= -.44166649E+02  d E =-.187608E-01  mag=    -0.0000
       N       E                     dE             d eps       ncg     rms          rms(c)
DAV:   1    -0.441608941379E+02    0.50238E-02   -0.13273E-01 10072   0.111E+01    0.483E-01
DAV:   2    -0.441700694497E+02   -0.91753E-02   -0.10210E-01  9496   0.248E+00    0.682E-01
DAV:   3    -0.441691969287E+02    0.87252E-03   -0.45948E-02  9548   0.197E+00    0.783E-01
DAV:   4    -0.441662087704E+02    0.29882E-02   -0.17974E-02  9420   0.121E+00    0.131E-01
DAV:   5    -0.441660806218E+02    0.12815E-03   -0.50578E-04  9336   0.191E-01    0.655E-02
DAV:   6    -0.441660298476E+02    0.50774E-04   -0.11960E-04  9564   0.105E-01    0.173E-02
DAV:   7    -0.441660270780E+02    0.27696E-05   -0.25068E-05  9216   0.455E-02    0.559E-03
DAV:   8    -0.441660269219E+02    0.15605E-06   -0.14677E-06  9272   0.120E-02    0.161E-03
DAV:   9    -0.441660268405E+02    0.81487E-07   -0.93943E-08  9960   0.230E-03    0.343E-04
DAV:  10    -0.441660268187E+02    0.21799E-07   -0.71071E-09  4684   0.936E-04    0.118E-04
DAV:  11    -0.441660268183E+02    0.37107E-09   -0.13029E-09  4488   0.349E-04
  10 F= -.44166027E+02 E0= -.44166744E+02  d E =-.188696E-01  mag=     0.0000
       N       E                     dE             d eps       ncg     rms          rms(c)
DAV:   1    -0.441811867746E+02   -0.15160E-01   -0.10308E+00  9420   0.259E+01    0.232E+00
DAV:   2    -0.442690138372E+02   -0.87827E-01   -0.11569E+00  9432   0.949E+00    0.324E+00
DAV:   3    -0.442269744124E+02    0.42039E-01   -0.10327E+00  9424   0.786E+00    0.322E+00
DAV:   4    -0.441683102521E+02    0.58664E-01   -0.26010E-01  9312   0.640E+00    0.468E-01
DAV:   5    -0.441668824508E+02    0.14278E-02   -0.10920E-02  9408   0.679E-01    0.175E-01
DAV:   6    -0.441666275024E+02    0.25495E-03   -0.64145E-04 10136   0.260E-01    0.505E-02
DAV:   7    -0.441666172264E+02    0.10276E-04   -0.12746E-04 10296   0.106E-01    0.201E-02
DAV:   8    -0.441666180164E+02   -0.79003E-06   -0.31925E-05  9408   0.564E-02    0.139E-02
DAV:   9    -0.441666173961E+02    0.62028E-06   -0.55383E-06  9804   0.206E-02    0.163E-03
DAV:  10    -0.441666174631E+02   -0.66968E-07   -0.28933E-07  8940   0.396E-03    0.443E-04
DAV:  11    -0.441666174843E+02   -0.21180E-07   -0.15429E-08  5352   0.103E-03    0.191E-04
DAV:  12    -0.441666174883E+02   -0.40018E-08   -0.37421E-09  4496   0.572E-04
  11 F= -.44166617E+02 E0= -.44167434E+02  d E =-.590670E-03  mag=    -0.0000
       N       E                     dE             d eps       ncg     rms          rms(c)
DAV:   1    -0.441675181702E+02   -0.90069E-03   -0.57863E-02  9504   0.617E+00    0.553E-01
DAV:   2    -0.441724570558E+02   -0.49389E-02   -0.63781E-02  9408   0.227E+00    0.719E-01
DAV:   3    -0.441690925193E+02    0.33645E-02   -0.40871E-02  9348   0.184E+00    0.712E-01
DAV:   4    -0.441667949280E+02    0.22976E-02   -0.15200E-02  9340   0.111E+00    0.106E-01
DAV:   5    -0.441666974483E+02    0.97480E-04   -0.42498E-04  9160   0.155E-01    0.396E-02
DAV:   6    -0.441666810247E+02    0.16424E-04   -0.34686E-05  9608   0.513E-02    0.821E-03
DAV:   7    -0.441666795912E+02    0.14335E-05   -0.68371E-06  9904   0.217E-02    0.586E-03
DAV:   8    -0.441666792255E+02    0.36569E-06   -0.11588E-06  9840   0.100E-02    0.107E-03
DAV:   9    -0.441666791156E+02    0.10990E-06   -0.62747E-08  8512   0.247E-03    0.197E-04
DAV:  10    -0.441666791037E+02    0.11907E-07   -0.54915E-09  4536   0.752E-04    0.991E-05
DAV:  11    -0.441666791016E+02    0.21282E-08   -0.12585E-09  4400   0.332E-04
  12 F= -.44166679E+02 E0= -.44167474E+02  d E =-.652283E-03  mag=     0.0000
       N       E                     dE             d eps       ncg     rms          rms(c)
DAV:   1    -0.441608795542E+02    0.57995E-02   -0.25653E-01  9592   0.136E+01    0.779E-01
DAV:   2    -0.441748081316E+02   -0.13929E-01   -0.18185E-01  9544   0.355E+00    0.848E-01
DAV:   3    -0.441716763266E+02    0.31318E-02   -0.64271E-02  9392   0.237E+00    0.944E-01
DAV:   4    -0.441678234349E+02    0.38529E-02   -0.32512E-02  9464   0.158E+00    0.293E-01
DAV:   5    -0.441669995031E+02    0.82393E-03   -0.22279E-03 10728   0.473E-01    0.483E-02
DAV:   6    -0.441669740906E+02    0.25412E-04   -0.20147E-04  9480   0.105E-01    0.154E-02
DAV:   7    -0.441669728428E+02    0.12479E-05   -0.14980E-05  9776   0.355E-02    0.773E-03
DAV:   8    -0.441669725340E+02    0.30872E-06   -0.19363E-06  9928   0.923E-03    0.186E-03
DAV:   9    -0.441669724550E+02    0.79068E-07   -0.17799E-07  9440   0.353E-03    0.477E-04
DAV:  10    -0.441669724387E+02    0.16233E-07   -0.10700E-08  4648   0.101E-03    0.116E-04
DAV:  11    -0.441669724293E+02    0.94187E-08   -0.26171E-09  4448   0.381E-04
  13 F= -.44166972E+02 E0= -.44167821E+02  d E =-.293328E-03  mag=    -0.0000
       N       E                     dE             d eps       ncg     rms          rms(c)
DAV:   1    -0.441669561733E+02    0.16265E-04   -0.70515E-04  9592   0.714E-01    0.406E-02
DAV:   2    -0.441669960595E+02   -0.39886E-04   -0.50158E-04  9568   0.186E-01    0.454E-02
DAV:   3    -0.441669876364E+02    0.84231E-05   -0.19054E-04  9424   0.126E-01    0.503E-02
DAV:   4    -0.441669757813E+02    0.11855E-04   -0.87710E-05  9376   0.866E-02    0.147E-02
DAV:   5    -0.441669734249E+02    0.23564E-05   -0.59372E-06 10664   0.243E-02    0.262E-03
DAV:   6    -0.441669732433E+02    0.18161E-06   -0.56950E-07  9480   0.568E-03    0.823E-04
DAV:   7    -0.441669732033E+02    0.39920E-07   -0.46209E-08  8336   0.205E-03    0.422E-04
DAV:   8    -0.441669731786E+02    0.24742E-07   -0.62611E-09  4424   0.656E-04    0.136E-04
DAV:   9    -0.441669731759E+02    0.27285E-08   -0.17332E-09  4352   0.387E-04
  14 F= -.44166973E+02 E0= -.44167823E+02  d E =-.294074E-03  mag=     0.0000
       N       E                     dE             d eps       ncg     rms          rms(c)
DAV:   1    -0.441692749714E+02   -0.23018E-02   -0.35981E-02  9568   0.176E+00    0.460E-01
DAV:   2    -0.441708288486E+02   -0.15539E-02   -0.29672E-02  9376   0.164E+00    0.588E-01
DAV:   3    -0.441685828583E+02    0.22460E-02   -0.24875E-02  9368   0.138E+00    0.536E-01
DAV:   4    -0.441672282384E+02    0.13546E-02   -0.93830E-03  9360   0.930E-01    0.121E-01
DAV:   5    -0.441670809448E+02    0.14729E-03   -0.49290E-04 10352   0.183E-01    0.278E-02
DAV:   6    -0.441670755611E+02    0.53836E-05   -0.45705E-05  9224   0.635E-02    0.777E-03
DAV:   7    -0.441670758966E+02   -0.33545E-06   -0.24591E-06 10296   0.131E-02    0.192E-03
DAV:   8    -0.441670761014E+02   -0.20477E-06   -0.15412E-07  9480   0.314E-03    0.394E-04
DAV:   9    -0.441670761089E+02   -0.75379E-08   -0.81666E-09  4912   0.811E-04
  15 F= -.44167076E+02 E0= -.44167911E+02  d E =-.102933E-03  mag=    -0.0000
       N       E                     dE             d eps       ncg     rms          rms(c)
DAV:   1    -0.441690798130E+02   -0.20037E-02   -0.32177E-02  9568   0.167E+00    0.436E-01
DAV:   2    -0.441705015008E+02   -0.14217E-02   -0.26655E-02  9376   0.155E+00    0.561E-01
DAV:   3    -0.441684978133E+02    0.20037E-02   -0.22643E-02  9368   0.132E+00    0.514E-01
DAV:   4    -0.441672510395E+02    0.12468E-02   -0.85477E-03  9360   0.887E-01    0.114E-01
DAV:   5    -0.441671211903E+02    0.12985E-03   -0.44239E-04 10328   0.173E-01    0.265E-02
DAV:   6    -0.441671163164E+02    0.48739E-05   -0.40793E-05  9216   0.601E-02    0.747E-03
DAV:   7    -0.441671166503E+02   -0.33393E-06   -0.22531E-06 10312   0.126E-02    0.183E-03
DAV:   8    -0.441671168415E+02   -0.19123E-06   -0.14319E-07  9440   0.305E-03    0.373E-04
DAV:   9    -0.441671168503E+02   -0.87603E-08   -0.74643E-09  4840   0.777E-04
  16 F= -.44167117E+02 E0= -.44167931E+02  d E =-.143674E-03  mag=     0.0000
       N       E                     dE             d eps       ncg     rms          rms(c)
DAV:   1    -0.441678555629E+02   -0.73872E-03   -0.30842E-02 10008   0.313E+00    0.343E-01
DAV:   2    -0.441690668951E+02   -0.12113E-02   -0.20449E-02  9408   0.137E+00    0.425E-01
DAV:   3    -0.441682757301E+02    0.79117E-03   -0.14765E-02  9464   0.108E+00    0.449E-01
DAV:   4    -0.441673449825E+02    0.93075E-03   -0.67970E-03  9400   0.750E-01    0.118E-01
DAV:   5    -0.441671908957E+02    0.15409E-03   -0.44363E-04 11288   0.201E-01    0.147E-02
DAV:   6    -0.441671913121E+02   -0.41645E-06   -0.40825E-05  8816   0.573E-02    0.592E-03
DAV:   7    -0.441671909467E+02    0.36543E-06   -0.12353E-06 10648   0.108E-02    0.257E-03
DAV:   8    -0.441671907843E+02    0.16241E-06   -0.19409E-07  9240   0.278E-03    0.684E-04
DAV:   9    -0.441671907595E+02    0.24731E-07   -0.17374E-08  5504   0.119E-03    0.167E-04
DAV:  10    -0.441671907521E+02    0.73924E-08   -0.29584E-09  4480   0.459E-04
  17 F= -.44167191E+02 E0= -.44167970E+02  d E =-.739018E-04  mag=     0.0000
       N       E                     dE             d eps       ncg     rms          rms(c)
DAV:   1    -0.441679698777E+02   -0.77912E-03   -0.34718E-02 10024   0.332E+00    0.365E-01
DAV:   2    -0.441693486078E+02   -0.13787E-02   -0.23123E-02  9408   0.146E+00    0.453E-01
DAV:   3    -0.441684485034E+02    0.90010E-03   -0.16715E-02  9472   0.116E+00    0.478E-01
DAV:   4    -0.441673924492E+02    0.10561E-02   -0.77008E-03  9400   0.798E-01    0.125E-01
DAV:   5    -0.441672198803E+02    0.17257E-03   -0.49833E-04 11288   0.212E-01    0.156E-02
DAV:   6    -0.441672203556E+02   -0.47521E-06   -0.45795E-05  8816   0.608E-02    0.631E-03
DAV:   7    -0.441672199614E+02    0.39419E-06   -0.13885E-06 10656   0.114E-02    0.273E-03
DAV:   8    -0.441672197936E+02    0.16772E-06   -0.21987E-07  9240   0.296E-03    0.725E-04
DAV:   9    -0.441672197683E+02    0.25375E-07   -0.19629E-08  5720   0.127E-03    0.177E-04
DAV:  10    -0.441672197599E+02    0.83492E-08   -0.32238E-09  4480   0.483E-04
  18 F= -.44167220E+02 E0= -.44167968E+02  d E =-.102910E-03  mag=     0.0000
       N       E                     dE             d eps       ncg     rms          rms(c)
DAV:   1    -0.441669076869E+02    0.31208E-03   -0.25354E-02  9536   0.365E+00    0.241E-01
DAV:   2    -0.441678510578E+02   -0.94337E-03   -0.14617E-02  9408   0.101E+00    0.215E-01
DAV:   3    -0.441675475344E+02    0.30352E-03   -0.33040E-03  9624   0.539E-01    0.204E-01
DAV:   4    -0.441674435332E+02    0.10400E-03   -0.23629E-03  9792   0.451E-01    0.149E-01
DAV:   5    -0.441672716853E+02    0.17185E-03   -0.56660E-04 10888   0.237E-01    0.107E-02
DAV:   6    -0.441672716576E+02    0.27736E-07   -0.32979E-05  8824   0.458E-02    0.476E-03
DAV:   7    -0.441672717956E+02   -0.13807E-06   -0.11745E-06 10632   0.948E-03    0.271E-03
DAV:   8    -0.441672719614E+02   -0.16579E-06   -0.24229E-07  9600   0.340E-03    0.776E-04
DAV:   9    -0.441672719783E+02   -0.16862E-07   -0.29546E-08  6632   0.167E-03    0.173E-04
DAV:  10    -0.441672719763E+02    0.19500E-08   -0.30676E-09  4464   0.511E-04
  19 F= -.44167272E+02 E0= -.44168000E+02  d E =-.522164E-04  mag=     0.0000
       N       E                     dE             d eps       ncg     rms          rms(c)
DAV:   1    -0.441651689047E+02    0.21031E-02   -0.14887E-01  9520   0.884E+00    0.585E-01
DAV:   2    -0.441707722078E+02   -0.56033E-02   -0.86338E-02  9392   0.245E+00    0.520E-01
DAV:   3    -0.441689511873E+02    0.18210E-02   -0.19200E-02  9536   0.130E+00    0.486E-01
DAV:   4    -0.441683818723E+02    0.56932E-03   -0.13591E-02  9904   0.110E+00    0.367E-01
DAV:   5    -0.441673578947E+02    0.10240E-02   -0.34608E-03 10872   0.581E-01    0.269E-02
DAV:   6    -0.441673560431E+02    0.18516E-05   -0.19736E-04  8840   0.112E-01    0.116E-02
DAV:   7    -0.441673561896E+02   -0.14650E-06   -0.74933E-06 10480   0.236E-02    0.670E-03
DAV:   8    -0.441673567107E+02   -0.52111E-06   -0.15356E-06  9880   0.853E-03    0.215E-03
DAV:   9    -0.441673567570E+02   -0.46362E-07   -0.21682E-07  9384   0.438E-03    0.423E-04
DAV:  10    -0.441673567486E+02    0.84474E-08   -0.15026E-08  5304   0.115E-03
  20 F= -.44167357E+02 E0= -.44168065E+02  d E =-.136989E-03  mag=     0.0000
       N       E                     dE             d eps       ncg     rms          rms(c)
DAV:   1    -0.441587167835E+02    0.86400E-02   -0.59659E-01  9600   0.176E+01    0.116E+00
DAV:   2    -0.441807330407E+02   -0.22016E-01   -0.34239E-01  9376   0.486E+00    0.102E+00
DAV:   3    -0.441732981756E+02    0.74349E-02   -0.72880E-02  9440   0.252E+00    0.924E-01
DAV:   4    -0.441715984623E+02    0.16997E-02   -0.52421E-02 10016   0.220E+00    0.767E-01
DAV:   5    -0.441672947842E+02    0.43037E-02   -0.15534E-02 10832   0.120E+00    0.593E-02
DAV:   6    -0.441672832164E+02    0.11568E-04   -0.83649E-04  8816   0.228E-01    0.230E-02
DAV:   7    -0.441672827801E+02    0.43632E-06   -0.36556E-05 10152   0.513E-02    0.139E-02
DAV:   8    -0.441672840297E+02   -0.12497E-05   -0.71890E-06 10376   0.188E-02    0.524E-03
DAV:   9    -0.441672841676E+02   -0.13784E-06   -0.11549E-06  9536   0.994E-03    0.849E-04
DAV:  10    -0.441672841448E+02    0.22814E-07   -0.76052E-08  8592   0.254E-03    0.163E-04
DAV:  11    -0.441672841561E+02   -0.11358E-07   -0.32209E-09  4568   0.455E-04    0.569E-05
DAV:  12    -0.441672841646E+02   -0.85201E-08   -0.85691E-10  4448   0.238E-04
  21 F= -.44167284E+02 E0= -.44167997E+02  d E =-.644047E-04  mag=    -0.0000
       N       E                     dE             d eps       ncg     rms          rms(c)
DAV:   1    -0.441630961042E+02    0.41881E-02   -0.34268E-01  9848   0.134E+01    0.874E-01
DAV:   2    -0.441747934428E+02   -0.11697E-01   -0.18513E-01  9408   0.361E+00    0.746E-01
DAV:   3    -0.441703951907E+02    0.43983E-02   -0.35650E-02  9456   0.181E+00    0.648E-01
DAV:   4    -0.441701004635E+02    0.29473E-03   -0.30723E-02  9968   0.156E+00    0.620E-01
DAV:   5    -0.441673870204E+02    0.27134E-02   -0.89617E-03 10728   0.962E-01    0.437E-02
DAV:   6    -0.441673768523E+02    0.10168E-04   -0.48519E-04  8864   0.171E-01    0.174E-02
DAV:   7    -0.441673753709E+02    0.14814E-05   -0.17045E-05 11000   0.364E-02    0.100E-02
DAV:   8    -0.441673753534E+02    0.17542E-07   -0.32499E-06  9512   0.132E-02    0.218E-03
DAV:   9    -0.441673752878E+02    0.65571E-07   -0.26484E-07  9672   0.476E-03    0.655E-04
DAV:  10    -0.441673752704E+02    0.17411E-07   -0.18260E-08  5848   0.107E-03    0.172E-04
DAV:  11    -0.441673752633E+02    0.71232E-08   -0.36496E-09  4508   0.489E-04
  22 F= -.44167375E+02 E0= -.44168084E+02  d E =-.155503E-03  mag=    -0.0000
       N       E                     dE             d eps       ncg     rms          rms(c)
DAV:   1    -0.441658675310E+02    0.15077E-02   -0.58678E-02  9640   0.580E+00    0.290E-01
DAV:   2    -0.441678230993E+02   -0.19556E-02   -0.29204E-02  8616   0.131E+00    0.163E-01
DAV:   3    -0.441676187101E+02    0.20439E-03   -0.15833E-03 10808   0.404E-01    0.143E-01
DAV:   4    -0.441677281429E+02   -0.10943E-03   -0.27686E-03  9888   0.507E-01    0.237E-01
DAV:   5    -0.441674498870E+02    0.27826E-03   -0.18530E-03 10200   0.367E-01    0.451E-02
DAV:   6    -0.441674334612E+02    0.16426E-04   -0.93716E-05  9544   0.818E-02    0.782E-03
DAV:   7    -0.441674335971E+02   -0.13593E-06   -0.62605E-06  9712   0.211E-02    0.416E-03
DAV:   8    -0.441674335876E+02    0.95315E-08   -0.10798E-06  9184   0.101E-02    0.164E-03
DAV:   9    -0.441674336073E+02   -0.19758E-07   -0.82380E-08  9352   0.266E-03    0.386E-04
DAV:  10    -0.441674336013E+02    0.60281E-08   -0.88648E-09  4524   0.897E-04
  23 F= -.44167434E+02 E0= -.44168155E+02  d E =-.583380E-04  mag=    -0.0000
       N       E                     dE             d eps       ncg     rms          rms(c)
DAV:   1    -0.441659508692E+02    0.14827E-02   -0.56813E-02  9648   0.571E+00    0.285E-01
DAV:   2    -0.441678436663E+02   -0.18928E-02   -0.28275E-02  8616   0.129E+00    0.161E-01
DAV:   3    -0.441676504250E+02    0.19324E-03   -0.15824E-03 10856   0.406E-01    0.148E-01
DAV:   4    -0.441677630791E+02   -0.11265E-03   -0.29182E-03  9920   0.513E-01    0.238E-01
DAV:   5    -0.441674774919E+02    0.28559E-03   -0.18263E-03 10256   0.362E-01    0.418E-02
DAV:   6    -0.441674627715E+02    0.14720E-04   -0.86373E-05  9544   0.788E-02    0.772E-03
DAV:   7    -0.441674628658E+02   -0.94267E-07   -0.57385E-06  9904   0.204E-02    0.410E-03
DAV:   8    -0.441674628489E+02    0.16866E-07   -0.10449E-06  9152   0.993E-03    0.163E-03
DAV:   9    -0.441674628611E+02   -0.12114E-07   -0.79230E-08  9216   0.268E-03    0.373E-04
DAV:  10    -0.441674628548E+02    0.62319E-08   -0.80107E-09  4532   0.834E-04
  24 F= -.44167463E+02 E0= -.44168190E+02  d E =-.875916E-04  mag=    -0.0000
       N       E                     dE             d eps       ncg     rms          rms(c)
DAV:   1    -0.441671641401E+02    0.29872E-03   -0.10005E-02 11344   0.266E+00    0.968E-02
DAV:   2    -0.441675398281E+02   -0.37569E-03   -0.47327E-03  8584   0.472E-01    0.749E-02
DAV:   3    -0.441675983882E+02   -0.58560E-04   -0.91618E-04 10616   0.300E-01    0.137E-01
DAV:   4    -0.441675037324E+02    0.94656E-04   -0.58556E-04 10120   0.204E-01    0.380E-02
DAV:   5    -0.441674879983E+02    0.15734E-04   -0.62350E-05 10096   0.694E-02    0.837E-03
DAV:   6    -0.441674871241E+02    0.87425E-06   -0.58216E-06  9344   0.223E-02    0.274E-03
DAV:   7    -0.441674870509E+02    0.73182E-07   -0.38317E-07 10844   0.495E-03    0.127E-03
DAV:   8    -0.441674870200E+02    0.30879E-07   -0.40524E-08  8080   0.177E-03    0.333E-04
DAV:   9    -0.441674870151E+02    0.49113E-08   -0.47306E-09  4456   0.707E-04
  25 F= -.44167487E+02 E0= -.44168220E+02  d E =-.241603E-04  mag=     0.0000
       N       E                     dE             d eps       ncg     rms          rms(c)
DAV:   1    -0.441673280387E+02    0.15898E-03   -0.50789E-03 11344   0.190E+00    0.688E-02
DAV:   2    -0.441675187439E+02   -0.19071E-03   -0.24006E-03  8600   0.336E-01    0.528E-02
DAV:   3    -0.441675484231E+02   -0.29679E-04   -0.45943E-04 10632   0.212E-01    0.973E-02
DAV:   4    -0.441675005400E+02    0.47883E-04   -0.29967E-04 10120   0.145E-01    0.273E-02
DAV:   5    -0.441674925655E+02    0.79745E-05   -0.32015E-05 10076   0.497E-02    0.597E-03
DAV:   6    -0.441674920785E+02    0.48698E-06   -0.29771E-06  9340   0.159E-02    0.195E-03
DAV:   7    -0.441674920274E+02    0.51095E-07   -0.19441E-07 10772   0.352E-03    0.909E-04
DAV:   8    -0.441674920018E+02    0.25564E-07   -0.19408E-08  6128   0.126E-03    0.236E-04
DAV:   9    -0.441674919979E+02    0.39436E-08   -0.33876E-09  4420   0.580E-04
  26 F= -.44167492E+02 E0= -.44168230E+02  d E =-.291431E-04  mag=     0.0000
