   6   6   0   0
  0.1283811E+02  0.2729853E-09  0.3622124E-09  0.7790217E-09  0.5000000E-15
  1.000000000000000E-004
  CAR 
 unknown system                          
     24.16726632    -58.79009623  301      8.44294186      1.00000000
    -58.790  0.0000E+00  0.0000E+00  0.0000E+00  0.0000E+00
    -58.514  0.0000E+00  0.0000E+00  0.0000E+00  0.0000E+00
    -58.237  0.0000E+00  0.0000E+00  0.0000E+00  0.0000E+00
    -57.961  0.0000E+00  0.0000E+00  0.0000E+00  0.0000E+00
    -57.684  0.0000E+00  0.0000E+00  0.0000E+00  0.0000E+00
    -57.407  0.0000E+00  0.0000E+00  0.0000E+00  0.0000E+00
    -57.131  0.0000E+00  0.0000E+00  0.0000E+00  0.0000E+00
    -56.854  0.0000E+00  0.0000E+00  0.0000E+00  0.0000E+00
    -56.578  0.0000E+00  0.0000E+00  0.0000E+00  0.0000E+00
    -56.301  0.0000E+00  0.0000E+00  0.0000E+00  0.0000E+00
    -56.025  0.0000E+00  0.0000E+00  0.0000E+00  0.0000E+00
    -55.748  0.0000E+00  0.0000E+00  0.0000E+00  0.0000E+00
    -55.472  0.0000E+00  0.0000E+00  0.0000E+00  0.0000E+00
    -55.195  0.0000E+00  0.0000E+00  0.0000E+00  0.0000E+00
    -54.919  0.3453E+02  0.3453E+02  0.5335E+01  0.5335E+01
    -54.642  0.0000E+00  0.0000E+00  0.7000E+01  0.7000E+01
    -54.366  0.0000E+00  0.0000E+00  0.9000E+01  0.9000E+01
    -54.089  0.0000E+00  0.0000E+00  0.9000E+01  0.9000E+01
    -53.813  0.0000E+00  0.0000E+00  0.9000E+01  0.9000E+01
    -53.536  0.0000E+00  0.0000E+00  0.9000E+01  0.9000E+01
    -53.260  0.0000E+00  0.0000E+00  0.9000E+01  0.9000E+01
    -52.983  0.0000E+00  0.0000E+00  0.9000E+01  0.9000E+01
    -52.707  0.0000E+00  0.0000E+00  0.9000E+01  0.9000E+01
    -52.430  0.0000E+00  0.0000E+00  0.9000E+01  0.9000E+01
    -52.154  0.0000E+00  0.0000E+00  0.9000E+01  0.9000E+01
    -51.877  0.0000E+00  0.0000E+00  0.9000E+01  0.9000E+01
    -51.600  0.0000E+00  0.0000E+00  0.9000E+01  0.9000E+01
    -51.324  0.0000E+00  0.0000E+00  0.9000E+01  0.9000E+01
    -51.047  0.0000E+00  0.0000E+00  0.9000E+01  0.9000E+01
    -50.771  0.0000E+00  0.0000E+00  0.9000E+01  0.9000E+01
    -50.494  0.0000E+00  0.0000E+00  0.9000E+01  0.9000E+01
    -50.218  0.0000E+00  0.0000E+00  0.9000E+01  0.9000E+01
    -49.941  0.0000E+00  0.0000E+00  0.9000E+01  0.9000E+01
    -49.665  0.0000E+00  0.0000E+00  0.9000E+01  0.9000E+01
    -49.388  0.0000E+00  0.0000E+00  0.9000E+01  0.9000E+01
    -49.112  0.0000E+00  0.0000E+00  0.9000E+01  0.9000E+01
    -48.835  0.0000E+00  0.0000E+00  0.9000E+01  0.9000E+01
    -48.559  0.0000E+00  0.0000E+00  0.9000E+01  0.9000E+01
    -48.282  0.0000E+00  0.0000E+00  0.9000E+01  0.9000E+01
    -48.006  0.0000E+00  0.0000E+00  0.9000E+01  0.9000E+01
    -47.729  0.0000E+00  0.0000E+00  0.9000E+01  0.9000E+01
    -47.453  0.0000E+00  0.0000E+00  0.9000E+01  0.9000E+01
    -47.176  0.0000E+00  0.0000E+00  0.9000E+01  0.9000E+01
    -46.900  0.0000E+00  0.0000E+00  0.9000E+01  0.9000E+01
    -46.623  0.0000E+00  0.0000E+00  0.9000E+01  0.9000E+01
    -46.346  0.0000E+00  0.0000E+00  0.9000E+01  0.9000E+01
    -46.070  0.0000E+00  0.0000E+00  0.9000E+01  0.9000E+01
    -45.793  0.0000E+00  0.0000E+00  0.9000E+01  0.9000E+01
    -45.517  0.0000E+00  0.0000E+00  0.9000E+01  0.9000E+01
    -45.240  0.0000E+00  0.0000E+00  0.9000E+01  0.9000E+01
    -44.964  0.0000E+00  0.0000E+00  0.9000E+01  0.9000E+01
    -44.687  0.0000E+00  0.0000E+00  0.9000E+01  0.9000E+01
    -44.411  0.0000E+00  0.0000E+00  0.9000E+01  0.9000E+01
    -44.134  0.0000E+00  0.0000E+00  0.9000E+01  0.9000E+01
    -43.858  0.0000E+00  0.0000E+00  0.9000E+01  0.9000E+01
    -43.581  0.0000E+00  0.0000E+00  0.9000E+01  0.9000E+01
    -43.305  0.0000E+00  0.0000E+00  0.9000E+01  0.9000E+01
    -43.028  0.0000E+00  0.0000E+00  0.9000E+01  0.9000E+01
    -42.752  0.0000E+00  0.0000E+00  0.9000E+01  0.9000E+01
    -42.475  0.0000E+00  0.0000E+00  0.9000E+01  0.9000E+01
    -42.199  0.0000E+00  0.0000E+00  0.9000E+01  0.9000E+01
    -41.922  0.0000E+00  0.0000E+00  0.9000E+01  0.9000E+01
    -41.646  0.0000E+00  0.0000E+00  0.9000E+01  0.9000E+01
    -41.369  0.0000E+00  0.0000E+00  0.9000E+01  0.9000E+01
    -41.093  0.0000E+00  0.0000E+00  0.9000E+01  0.9000E+01
    -40.816  0.0000E+00  0.0000E+00  0.9000E+01  0.9000E+01
    -40.539  0.0000E+00  0.0000E+00  0.9000E+01  0.9000E+01
    -40.263  0.0000E+00  0.0000E+00  0.9000E+01  0.9000E+01
    -39.986  0.0000E+00  0.0000E+00  0.9000E+01  0.9000E+01
    -39.710  0.0000E+00  0.0000E+00  0.9000E+01  0.9000E+01
    -39.433  0.0000E+00  0.0000E+00  0.9000E+01  0.9000E+01
    -39.157  0.0000E+00  0.0000E+00  0.9000E+01  0.9000E+01
    -38.880  0.0000E+00  0.0000E+00  0.9000E+01  0.9000E+01
    -38.604  0.0000E+00  0.0000E+00  0.9000E+01  0.9000E+01
    -38.327  0.0000E+00  0.0000E+00  0.9000E+01  0.9000E+01
    -38.051  0.0000E+00  0.0000E+00  0.9000E+01  0.9000E+01
    -37.774  0.0000E+00  0.0000E+00  0.9000E+01  0.9000E+01
    -37.498  0.0000E+00  0.0000E+00  0.9000E+01  0.9000E+01
    -37.221  0.0000E+00  0.0000E+00  0.9000E+01  0.9000E+01
    -36.945  0.0000E+00  0.0000E+00  0.9000E+01  0.9000E+01
    -36.668  0.0000E+00  0.0000E+00  0.9000E+01  0.9000E+01
    -36.392  0.0000E+00  0.0000E+00  0.9000E+01  0.9000E+01
    -36.115  0.0000E+00  0.0000E+00  0.9000E+01  0.9000E+01
    -35.839  0.0000E+00  0.0000E+00  0.9000E+01  0.9000E+01
    -35.562  0.0000E+00  0.0000E+00  0.9000E+01  0.9000E+01
    -35.286  0.0000E+00  0.0000E+00  0.9000E+01  0.9000E+01
    -35.009  0.0000E+00  0.0000E+00  0.9000E+01  0.9000E+01
    -34.732  0.0000E+00  0.0000E+00  0.9000E+01  0.9000E+01
    -34.456  0.0000E+00  0.0000E+00  0.9000E+01  0.9000E+01
    -34.179  0.0000E+00  0.0000E+00  0.9000E+01  0.9000E+01
    -33.903  0.0000E+00  0.0000E+00  0.9000E+01  0.9000E+01
    -33.626  0.0000E+00  0.0000E+00  0.9000E+01  0.9000E+01
    -33.350  0.0000E+00  0.0000E+00  0.9000E+01  0.9000E+01
    -33.073  0.0000E+00  0.0000E+00  0.9000E+01  0.9000E+01
    -32.797  0.0000E+00  0.0000E+00  0.9000E+01  0.9000E+01
    -32.520  0.0000E+00  0.0000E+00  0.9000E+01  0.9000E+01
    -32.244  0.0000E+00  0.0000E+00  0.9000E+01  0.9000E+01
    -31.967  0.0000E+00  0.0000E+00  0.9000E+01  0.9000E+01
    -31.691  0.0000E+00  0.0000E+00  0.9000E+01  0.9000E+01
    -31.414  0.0000E+00  0.0000E+00  0.9000E+01  0.9000E+01
    -31.138  0.0000E+00  0.0000E+00  0.9000E+01  0.9000E+01
    -30.861  0.0000E+00  0.0000E+00  0.9000E+01  0.9000E+01
    -30.585  0.0000E+00  0.0000E+00  0.9000E+01  0.9000E+01
    -30.308  0.0000E+00  0.0000E+00  0.9000E+01  0.9000E+01
    -30.032  0.0000E+00  0.0000E+00  0.9000E+01  0.9000E+01
    -29.755  0.0000E+00  0.0000E+00  0.9000E+01  0.9000E+01
    -29.478  0.0000E+00  0.0000E+00  0.9000E+01  0.9000E+01
    -29.202  0.0000E+00  0.0000E+00  0.9000E+01  0.9000E+01
    -28.925  0.0000E+00  0.0000E+00  0.9000E+01  0.9000E+01
    -28.649  0.0000E+00  0.0000E+00  0.9000E+01  0.9000E+01
    -28.372  0.0000E+00  0.0000E+00  0.9000E+01  0.9000E+01
    -28.096  0.0000E+00  0.0000E+00  0.9000E+01  0.9000E+01
    -27.819  0.0000E+00  0.0000E+00  0.9000E+01  0.9000E+01
    -27.543  0.0000E+00  0.0000E+00  0.9000E+01  0.9000E+01
    -27.266  0.0000E+00  0.0000E+00  0.9000E+01  0.9000E+01
    -26.990  0.0000E+00  0.0000E+00  0.9000E+01  0.9000E+01
    -26.713  0.0000E+00  0.0000E+00  0.9000E+01  0.9000E+01
    -26.437  0.0000E+00  0.0000E+00  0.9000E+01  0.9000E+01
    -26.160  0.0000E+00  0.0000E+00  0.9000E+01  0.9000E+01
    -25.884  0.0000E+00  0.0000E+00  0.9000E+01  0.9000E+01
    -25.607  0.0000E+00  0.0000E+00  0.9000E+01  0.9000E+01
    -25.331  0.0000E+00  0.0000E+00  0.9000E+01  0.9000E+01
    -25.054  0.0000E+00  0.0000E+00  0.9000E+01  0.9000E+01
    -24.778  0.0000E+00  0.0000E+00  0.9000E+01  0.9000E+01
    -24.501  0.0000E+00  0.0000E+00  0.9000E+01  0.9000E+01
    -24.225  0.0000E+00  0.0000E+00  0.9000E+01  0.9000E+01
    -23.948  0.0000E+00  0.0000E+00  0.9000E+01  0.9000E+01
    -23.671  0.0000E+00  0.0000E+00  0.9000E+01  0.9000E+01
    -23.395  0.0000E+00  0.0000E+00  0.9000E+01  0.9000E+01
    -23.118  0.0000E+00  0.0000E+00  0.9000E+01  0.9000E+01
    -22.842  0.0000E+00  0.0000E+00  0.9000E+01  0.9000E+01
    -22.565  0.0000E+00  0.0000E+00  0.9000E+01  0.9000E+01
    -22.289  0.0000E+00  0.0000E+00  0.9000E+01  0.9000E+01
    -22.012  0.0000E+00  0.0000E+00  0.9000E+01  0.9000E+01
    -21.736  0.0000E+00  0.0000E+00  0.9000E+01  0.9000E+01
    -21.459  0.0000E+00  0.0000E+00  0.9000E+01  0.9000E+01
    -21.183  0.0000E+00  0.0000E+00  0.9000E+01  0.9000E+01
    -20.906  0.0000E+00  0.0000E+00  0.9000E+01  0.9000E+01
    -20.630  0.0000E+00  0.0000E+00  0.9000E+01  0.9000E+01
    -20.353  0.0000E+00  0.0000E+00  0.9000E+01  0.9000E+01
    -20.077  0.0000E+00  0.0000E+00  0.9000E+01  0.9000E+01
    -19.800  0.0000E+00  0.0000E+00  0.9000E+01  0.9000E+01
    -19.524  0.0000E+00  0.0000E+00  0.9000E+01  0.9000E+01
    -19.247  0.0000E+00  0.0000E+00  0.9000E+01  0.9000E+01
    -18.971  0.0000E+00  0.0000E+00  0.9000E+01  0.9000E+01
    -18.694  0.0000E+00  0.0000E+00  0.9000E+01  0.9000E+01
    -18.418  0.0000E+00  0.0000E+00  0.9000E+01  0.9000E+01
    -18.141  0.0000E+00  0.0000E+00  0.9000E+01  0.9000E+01
    -17.864  0.0000E+00  0.0000E+00  0.9000E+01  0.9000E+01
    -17.588  0.0000E+00  0.0000E+00  0.9000E+01  0.9000E+01
    -17.311  0.0000E+00  0.0000E+00  0.9000E+01  0.9000E+01
    -17.035  0.0000E+00  0.0000E+00  0.9000E+01  0.9000E+01
    -16.758  0.0000E+00  0.0000E+00  0.9000E+01  0.9000E+01
    -16.482  0.0000E+00  0.0000E+00  0.9000E+01  0.9000E+01
    -16.205  0.0000E+00  0.0000E+00  0.9000E+01  0.9000E+01
    -15.929  0.0000E+00  0.0000E+00  0.9000E+01  0.9000E+01
    -15.652  0.0000E+00  0.0000E+00  0.9000E+01  0.9000E+01
    -15.376  0.0000E+00  0.0000E+00  0.9000E+01  0.9000E+01
    -15.099  0.0000E+00  0.0000E+00  0.9000E+01  0.9000E+01
    -14.823  0.0000E+00  0.0000E+00  0.9000E+01  0.9000E+01
    -14.546  0.0000E+00  0.0000E+00  0.9000E+01  0.9000E+01
    -14.270  0.0000E+00  0.0000E+00  0.9000E+01  0.9000E+01
    -13.993  0.0000E+00  0.0000E+00  0.9000E+01  0.9000E+01
    -13.717  0.0000E+00  0.0000E+00  0.9000E+01  0.9000E+01
    -13.440  0.0000E+00  0.0000E+00  0.9000E+01  0.9000E+01
    -13.164  0.0000E+00  0.0000E+00  0.9000E+01  0.9000E+01
    -12.887  0.0000E+00  0.0000E+00  0.9000E+01  0.9000E+01
    -12.610  0.0000E+00  0.0000E+00  0.9000E+01  0.9000E+01
    -12.334  0.0000E+00  0.0000E+00  0.9000E+01  0.9000E+01
    -12.057  0.0000E+00  0.0000E+00  0.9000E+01  0.9000E+01
    -11.781  0.0000E+00  0.0000E+00  0.9000E+01  0.9000E+01
    -11.504  0.0000E+00  0.0000E+00  0.9000E+01  0.9000E+01
    -11.228  0.0000E+00  0.0000E+00  0.9000E+01  0.9000E+01
    -10.951  0.0000E+00  0.0000E+00  0.9000E+01  0.9000E+01
    -10.675  0.0000E+00  0.0000E+00  0.9000E+01  0.9000E+01
    -10.398  0.0000E+00  0.0000E+00  0.9000E+01  0.9000E+01
    -10.122  0.0000E+00  0.0000E+00  0.9000E+01  0.9000E+01
     -9.845  0.0000E+00  0.0000E+00  0.9000E+01  0.9000E+01
     -9.569  0.0000E+00  0.0000E+00  0.9000E+01  0.9000E+01
     -9.292  0.0000E+00  0.0000E+00  0.9000E+01  0.9000E+01
     -9.016  0.0000E+00  0.0000E+00  0.9000E+01  0.9000E+01
     -8.739  0.0000E+00  0.0000E+00  0.9000E+01  0.9000E+01
     -8.463  0.0000E+00  0.0000E+00  0.9000E+01  0.9000E+01
     -8.186  0.0000E+00  0.0000E+00  0.9000E+01  0.9000E+01
     -7.910  0.0000E+00  0.0000E+00  0.9000E+01  0.9000E+01
     -7.633  0.0000E+00  0.0000E+00  0.9000E+01  0.9000E+01
     -7.357  0.0000E+00  0.0000E+00  0.9000E+01  0.9000E+01
     -7.080  0.0000E+00  0.0000E+00  0.9000E+01  0.9000E+01
     -6.803  0.0000E+00  0.0000E+00  0.9000E+01  0.9000E+01
     -6.527  0.0000E+00  0.0000E+00  0.9000E+01  0.9000E+01
     -6.250  0.0000E+00  0.0000E+00  0.9000E+01  0.9000E+01
     -5.974  0.0000E+00  0.0000E+00  0.9000E+01  0.9000E+01
     -5.697  0.0000E+00  0.0000E+00  0.9000E+01  0.9000E+01
     -5.421  0.0000E+00  0.0000E+00  0.9000E+01  0.9000E+01
     -5.144  0.0000E+00  0.0000E+00  0.9000E+01  0.9000E+01
     -4.868  0.0000E+00  0.0000E+00  0.9000E+01  0.9000E+01
     -4.591  0.0000E+00  0.0000E+00  0.9000E+01  0.9000E+01
     -4.315  0.0000E+00  0.0000E+00  0.9000E+01  0.9000E+01
     -4.038  0.0000E+00  0.0000E+00  0.9000E+01  0.9000E+01
     -3.762  0.0000E+00  0.0000E+00  0.9000E+01  0.9000E+01
     -3.485  0.0000E+00  0.0000E+00  0.9000E+01  0.9000E+01
     -3.209  0.0000E+00  0.0000E+00  0.9000E+01  0.9000E+01
     -2.932  0.0000E+00  0.0000E+00  0.9000E+01  0.9000E+01
     -2.656  0.3542E-02  0.3543E-02  0.9000E+01  0.9000E+01
     -2.379  0.2433E+00  0.2433E+00  0.9031E+01  0.9031E+01
     -2.103  0.1868E+00  0.1868E+00  0.9092E+01  0.9092E+01
     -1.826  0.2232E+00  0.2232E+00  0.9149E+01  0.9149E+01
     -1.550  0.2211E+00  0.2211E+00  0.9213E+01  0.9213E+01
     -1.273  0.2082E+00  0.2082E+00  0.9270E+01  0.9270E+01
     -0.996  0.2163E+00  0.2163E+00  0.9329E+01  0.9329E+01
     -0.720  0.2863E+00  0.2863E+00  0.9394E+01  0.9394E+01
     -0.443  0.4813E+00  0.4813E+00  0.9509E+01  0.9509E+01
     -0.167  0.4140E+00  0.4140E+00  0.9625E+01  0.9625E+01
      0.110  0.4207E+00  0.4207E+00  0.9741E+01  0.9741E+01
      0.386  0.4034E+00  0.4034E+00  0.9856E+01  0.9856E+01
      0.663  0.4198E+00  0.4198E+00  0.9970E+01  0.9970E+01
      0.939  0.5886E+00  0.5886E+00  0.1009E+02  0.1009E+02
      1.216  0.6377E+00  0.6377E+00  0.1025E+02  0.1025E+02
      1.492  0.5488E+00  0.5488E+00  0.1042E+02  0.1042E+02
      1.769  0.5783E+00  0.5783E+00  0.1057E+02  0.1057E+02
      2.045  0.5699E+00  0.5699E+00  0.1073E+02  0.1073E+02
      2.322  0.6368E+00  0.6368E+00  0.1090E+02  0.1090E+02
      2.598  0.6471E+00  0.6471E+00  0.1108E+02  0.1108E+02
      2.875  0.9528E+00  0.9528E+00  0.1128E+02  0.1128E+02
      3.151  0.1017E+01  0.1017E+01  0.1154E+02  0.1154E+02
      3.428  0.9181E+00  0.9181E+00  0.1180E+02  0.1180E+02
      3.704  0.9497E+00  0.9497E+00  0.1207E+02  0.1207E+02
      3.981  0.8299E+00  0.8299E+00  0.1231E+02  0.1231E+02
      4.257  0.8226E+00  0.8226E+00  0.1253E+02  0.1253E+02
      4.534  0.1452E+01  0.1452E+01  0.1296E+02  0.1296E+02
      4.811  0.2056E+01  0.2056E+01  0.1339E+02  0.1339E+02
      5.087  0.1369E+01  0.1369E+01  0.1403E+02  0.1403E+02
      5.364  0.3538E+01  0.3538E+01  0.1480E+02  0.1480E+02
      5.640  0.5850E+01  0.5851E+01  0.1588E+02  0.1588E+02
      5.917  0.3300E+01  0.3300E+01  0.1722E+02  0.1722E+02
      6.193  0.5713E+01  0.5712E+01  0.1839E+02  0.1839E+02
      6.470  0.5620E+01  0.5620E+01  0.1980E+02  0.1980E+02
      6.746  0.4712E+01  0.4711E+01  0.2138E+02  0.2138E+02
      7.023  0.4732E+01  0.4732E+01  0.2283E+02  0.2283E+02
      7.299  0.5399E+01  0.5399E+01  0.2418E+02  0.2418E+02
      7.576  0.4219E+01  0.4219E+01  0.2557E+02  0.2557E+02
      7.852  0.4240E+01  0.4241E+01  0.2674E+02  0.2674E+02
      8.129  0.2615E+01  0.2615E+01  0.2784E+02  0.2784E+02
      8.405  0.2240E+01  0.2240E+01  0.2841E+02  0.2841E+02
      8.682  0.1331E+01  0.1330E+01  0.2902E+02  0.2902E+02
      8.958  0.1057E+01  0.1057E+01  0.2930E+02  0.2930E+02
      9.235  0.9870E+00  0.9870E+00  0.2959E+02  0.2959E+02
      9.511  0.1058E+01  0.1058E+01  0.2990E+02  0.2990E+02
      9.788  0.1117E+01  0.1117E+01  0.3022E+02  0.3022E+02
     10.065  0.1183E+01  0.1183E+01  0.3054E+02  0.3054E+02
     10.341  0.1011E+01  0.1011E+01  0.3088E+02  0.3088E+02
     10.618  0.1014E+01  0.1014E+01  0.3115E+02  0.3115E+02
     10.894  0.9202E+00  0.9202E+00  0.3141E+02  0.3141E+02
     11.171  0.3090E+01  0.3090E+01  0.3164E+02  0.3164E+02
     11.447  0.1011E+01  0.1011E+01  0.3188E+02  0.3188E+02
     11.724  0.8545E+00  0.8545E+00  0.3216E+02  0.3216E+02
     12.000  0.9440E+00  0.9440E+00  0.3241E+02  0.3241E+02
     12.277  0.1124E+01  0.1124E+01  0.3272E+02  0.3272E+02
     12.553  0.9987E+00  0.9987E+00  0.3299E+02  0.3299E+02
     12.830  0.1019E+01  0.1019E+01  0.3329E+02  0.3329E+02
     13.106  0.1075E+01  0.1075E+01  0.3359E+02  0.3359E+02
     13.383  0.1143E+01  0.1143E+01  0.3390E+02  0.3390E+02
     13.659  0.1444E+01  0.1444E+01  0.3424E+02  0.3424E+02
     13.936  0.1003E+01  0.1003E+01  0.3457E+02  0.3457E+02
     14.212  0.9595E+00  0.9595E+00  0.3484E+02  0.3484E+02
     14.489  0.1050E+01  0.1050E+01  0.3512E+02  0.3512E+02
     14.765  0.1069E+01  0.1069E+01  0.3543E+02  0.3543E+02
     15.042  0.1097E+01  0.1097E+01  0.3572E+02  0.3572E+02
     15.318  0.1169E+01  0.1169E+01  0.3604E+02  0.3604E+02
     15.595  0.1115E+01  0.1115E+01  0.3636E+02  0.3636E+02
     15.872  0.1311E+01  0.1311E+01  0.3669E+02  0.3669E+02
     16.148  0.1305E+01  0.1305E+01  0.3705E+02  0.3705E+02
     16.425  0.1515E+01  0.1515E+01  0.3744E+02  0.3744E+02
     16.701  0.1132E+01  0.1132E+01  0.3781E+02  0.3781E+02
     16.978  0.1100E+01  0.1100E+01  0.3811E+02  0.3811E+02
     17.254  0.1190E+01  0.1190E+01  0.3843E+02  0.3843E+02
     17.531  0.9053E+00  0.9053E+00  0.3873E+02  0.3873E+02
     17.807  0.6849E+00  0.6849E+00  0.3895E+02  0.3895E+02
     18.084  0.6530E+00  0.6530E+00  0.3913E+02  0.3913E+02
     18.360  0.6757E+00  0.6757E+00  0.3932E+02  0.3932E+02
     18.637  0.5966E+00  0.5966E+00  0.3950E+02  0.3950E+02
     18.913  0.5602E+00  0.5602E+00  0.3966E+02  0.3966E+02
     19.190  0.4204E+00  0.4204E+00  0.3980E+02  0.3980E+02
     19.466  0.2508E+00  0.2508E+00  0.3989E+02  0.3989E+02
     19.743  0.1744E+00  0.1744E+00  0.3995E+02  0.3995E+02
     20.019  0.1032E+00  0.1032E+00  0.3999E+02  0.3999E+02
     20.296  0.1456E-01  0.1456E-01  0.4000E+02  0.4000E+02
     20.572  0.0000E+00  0.0000E+00  0.4000E+02  0.4000E+02
     20.849  0.0000E+00  0.0000E+00  0.4000E+02  0.4000E+02
     21.125  0.0000E+00  0.0000E+00  0.4000E+02  0.4000E+02
     21.402  0.0000E+00  0.0000E+00  0.4000E+02  0.4000E+02
     21.679  0.0000E+00  0.0000E+00  0.4000E+02  0.4000E+02
     21.955  0.0000E+00  0.0000E+00  0.4000E+02  0.4000E+02
     22.232  0.0000E+00  0.0000E+00  0.4000E+02  0.4000E+02
     22.508  0.0000E+00  0.0000E+00  0.4000E+02  0.4000E+02
     22.785  0.0000E+00  0.0000E+00  0.4000E+02  0.4000E+02
     23.061  0.0000E+00  0.0000E+00  0.4000E+02  0.4000E+02
     23.338  0.0000E+00  0.0000E+00  0.4000E+02  0.4000E+02
     23.614  0.0000E+00  0.0000E+00  0.4000E+02  0.4000E+02
     23.891  0.0000E+00  0.0000E+00  0.4000E+02  0.4000E+02
     24.167  0.0000E+00  0.0000E+00  0.4000E+02  0.4000E+02
