 running on   24 total cores
 distrk:  each k-point on   24 cores,    1 groups
 distr:  one band on    6 cores,    4 groups
 using from now: INCAR     
 vasp.5.4.4.18Apr17-6-g9f103f2a35 (build Jan 03 2018 06:08:52) complex          
  
 POSCAR found :  2 types and       6 ions
 scaLAPACK will be used
 WARNING: for PREC=h ENMAX is automatically increase by 25 %
        this was not the case for versions prior to vasp.4.4
 WARNING: for PREC=h ENMAX is automatically increase by 25 %
        this was not the case for versions prior to vasp.4.4
 LDA part: xc-table for Pade appr. of Perdew
 POSCAR, INCAR and KPOINTS ok, starting setup
 FFT: planning ...
 WAVECAR not read
 entering main loop
       N       E                     dE             d eps       ncg     rms          rms(c)
DAV:   1     0.628137862928E+03    0.62814E+03   -0.32431E+04  7584   0.157E+03
DAV:   2     0.189352489777E+00   -0.62795E+03   -0.59770E+03  6696   0.505E+02
DAV:   3    -0.344971425773E+02   -0.34686E+02   -0.32934E+02  7520   0.139E+02
DAV:   4    -0.353259709718E+02   -0.82883E+00   -0.82692E+00  7200   0.211E+01
DAV:   5    -0.353509105717E+02   -0.24940E-01   -0.24938E-01  7976   0.382E+00    0.294E+01
DAV:   6    -0.633853329800E+02   -0.28034E+02   -0.24000E+02  7808   0.177E+02    0.425E+01
DAV:   7    -0.301732975979E+02    0.33212E+02   -0.85328E+01  7864   0.991E+01    0.139E+01
DAV:   8    -0.285970657648E+02    0.15762E+01   -0.56122E+00  8768   0.343E+01    0.659E+00
DAV:   9    -0.287431974545E+02   -0.14613E+00   -0.56601E+00  8096   0.219E+01    0.723E+00
DAV:  10    -0.284170633406E+02    0.32613E+00   -0.26711E+00  8112   0.148E+01    0.279E+00
DAV:  11    -0.284194876726E+02   -0.24243E-02   -0.20337E-01  7512   0.609E+00    0.207E+00
DAV:  12    -0.283767847809E+02    0.42703E-01   -0.89930E-02  8832   0.321E+00    0.474E-01
DAV:  13    -0.283765063473E+02    0.27843E-03   -0.24089E-02  9000   0.135E+00    0.343E-01
DAV:  14    -0.283758062215E+02    0.70013E-03   -0.35364E-03  7240   0.655E-01    0.747E-02
DAV:  15    -0.283758202938E+02   -0.14072E-04   -0.31615E-04  8352   0.127E-01    0.291E-02
DAV:  16    -0.283758247698E+02   -0.44759E-05   -0.36556E-05  7672   0.526E-02    0.168E-02
DAV:  17    -0.283758312072E+02   -0.64374E-05   -0.17695E-05  9120   0.444E-02    0.201E-02
DAV:  18    -0.283758276288E+02    0.35784E-05   -0.10584E-05  8624   0.367E-02    0.581E-03
DAV:  19    -0.283758275784E+02    0.50321E-07   -0.85516E-07  7944   0.805E-03    0.411E-03
DAV:  20    -0.283758276151E+02   -0.36654E-07   -0.16655E-07  7448   0.398E-03    0.286E-03
DAV:  21    -0.283758276388E+02   -0.23718E-07   -0.16338E-07  7464   0.408E-03    0.144E-03
DAV:  22    -0.283758276591E+02   -0.20291E-07   -0.55405E-08  5464   0.217E-03    0.830E-04
DAV:  23    -0.283758276772E+02   -0.18044E-07   -0.47019E-08  5560   0.210E-03    0.301E-04
DAV:  24    -0.283758276833E+02   -0.61500E-08   -0.62082E-09  3752   0.645E-04
   1 F= -.28375828E+02 E0= -.28375176E+02  d E =-.283758E+02  mag=     0.0000
 curvature:   0.00 expect dE= 0.000E+00 dE for cont linesearch  0.000E+00
 trial: gam= 0.00000 g(F)=  0.103E+01 g(S)=  0.423E+01 ort = 0.000E+00 (trialstep = 0.100E+01)
 search vector abs. value=  0.526E+01
 bond charge predicted
       N       E                     dE             d eps       ncg     rms          rms(c)
DAV:   1    -0.187974310206E+03   -0.15960E+03   -0.21792E+03  6544   0.626E+02    0.937E+01
DAV:   2    -0.784162887553E+02    0.10956E+03   -0.89826E+02  7776   0.249E+02    0.616E+01
DAV:   3    -0.627183761435E+02    0.15698E+02   -0.43765E+02  7872   0.190E+02    0.440E+01
DAV:   4    -0.361077481306E+02    0.26611E+02   -0.81263E+01  7296   0.772E+01    0.191E+01
DAV:   5    -0.300392608681E+02    0.60685E+01   -0.69211E+00  8080   0.325E+01    0.701E+00
DAV:   6    -0.306813216139E+02   -0.64206E+00   -0.66004E+00  8304   0.327E+01    0.114E+01
DAV:   7    -0.294384035857E+02    0.12429E+01   -0.19057E+00  8776   0.252E+01    0.367E+00
DAV:   8    -0.293616976929E+02    0.76706E-01   -0.10448E+00  7216   0.855E+00    0.147E+00
DAV:   9    -0.293484784118E+02    0.13219E-01   -0.72020E-02  7296   0.269E+00    0.548E-01
DAV:  10    -0.293487661483E+02   -0.28774E-03   -0.40380E-03  8112   0.618E-01    0.544E-01
DAV:  11    -0.293474274528E+02    0.13387E-02   -0.12417E-02  8600   0.109E+00    0.232E-01
DAV:  12    -0.293471518551E+02    0.27560E-03   -0.14705E-03  7240   0.383E-01    0.710E-02
DAV:  13    -0.293471913800E+02   -0.39525E-04   -0.49054E-04  8096   0.257E-01    0.120E-01
DAV:  14    -0.293471337343E+02    0.57646E-04   -0.51742E-04  8048   0.244E-01    0.474E-02
DAV:  15    -0.293471198023E+02    0.13932E-04   -0.37410E-05  7408   0.575E-02    0.144E-02
DAV:  16    -0.293471192432E+02    0.55911E-06   -0.13627E-05  9048   0.354E-02    0.111E-02
DAV:  17    -0.293471187929E+02    0.45029E-06   -0.35786E-06  7584   0.202E-02    0.154E-03
DAV:  18    -0.293471187644E+02    0.28502E-07   -0.19442E-07  7432   0.421E-03    0.119E-03
DAV:  19    -0.293471187466E+02    0.17833E-07   -0.35811E-08  5184   0.189E-03    0.306E-04
DAV:  20    -0.293471187416E+02    0.50277E-08   -0.47681E-09  3608   0.679E-04
   2 F= -.29347119E+02 E0= -.29346687E+02  d E =-.971291E+00  mag=    -0.0002
 trial-energy change:   -0.971291  1 .order   -1.276934   -5.258052    2.704184
 step:   0.6054(harm=  0.6604)  dis= 0.06656  next Energy=   -29.899508 (dE=-0.152E+01)
 bond charge predicted
       N       E                     dE             d eps       ncg     rms          rms(c)
DAV:   1    -0.763969805324E+02   -0.47050E+02   -0.43520E+02  7360   0.208E+02    0.736E+01
DAV:   2    -0.161650856324E+03   -0.85254E+02   -0.10657E+03  8032   0.378E+02    0.651E+01
DAV:   3    -0.457308532151E+02    0.11592E+03   -0.34612E+02  7616   0.157E+02    0.265E+01
DAV:   4    -0.328346118913E+02    0.12896E+02   -0.20569E+01  7632   0.478E+01    0.124E+01
DAV:   5    -0.325456850952E+02    0.28893E+00   -0.84535E+00  9408   0.495E+01    0.195E+01
DAV:   6    -0.301920419940E+02    0.23536E+01   -0.55825E+00  7824   0.236E+01    0.616E+00
DAV:   7    -0.298674052770E+02    0.32464E+00   -0.16571E+00  7984   0.135E+01    0.173E+00
DAV:   8    -0.298926028329E+02   -0.25198E-01   -0.13701E-01  8096   0.319E+00    0.224E+00
DAV:   9    -0.298573234405E+02    0.35279E-01   -0.40678E-01  8784   0.552E+00    0.152E+00
DAV:  10    -0.298493236165E+02    0.79998E-02   -0.22816E-02  7440   0.188E+00    0.925E-01
DAV:  11    -0.298419044384E+02    0.74192E-02   -0.19500E-02  8688   0.137E+00    0.116E-01
DAV:  12    -0.298420568043E+02   -0.15237E-03   -0.24396E-03  7872   0.323E-01    0.109E-01
DAV:  13    -0.298419471390E+02    0.10967E-03   -0.55987E-04  7664   0.225E-01    0.170E-02
DAV:  14    -0.298419474539E+02   -0.31488E-06   -0.21020E-05  7264   0.407E-02    0.777E-03
DAV:  15    -0.298419487021E+02   -0.12482E-05   -0.63277E-06  7680   0.277E-02    0.180E-02
DAV:  16    -0.298419455550E+02    0.31471E-05   -0.81026E-06  8160   0.295E-02    0.117E-03
DAV:  17    -0.298419456227E+02   -0.67714E-07   -0.60094E-07  7008   0.550E-03    0.111E-03
DAV:  18    -0.298419455965E+02    0.26252E-07   -0.34268E-08  6496   0.170E-03    0.524E-04
DAV:  19    -0.298419456146E+02   -0.18117E-07   -0.17342E-08  3504   0.137E-03    0.280E-04
DAV:  20    -0.298419456106E+02    0.39327E-08   -0.30702E-09  3288   0.649E-04
   3 F= -.29841946E+02 E0= -.29841487E+02  d E =-.146612E+01  mag=     0.0000
 curvature:  -0.32 expect dE=-0.921E-01 dE for cont linesearch -0.174E-03
 trial: gam= 0.06460 g(F)=  0.169E+00 g(S)=  0.118E+00 ort =-0.533E-01 (trialstep = 0.921E+00)
 search vector abs. value=  0.301E+00
 bond charge predicted
       N       E                     dE             d eps       ncg     rms          rms(c)
DAV:   1    -0.317235805511E+02   -0.18816E+01   -0.23695E+01  7440   0.760E+01    0.154E+01
DAV:   2    -0.384452202433E+02   -0.67216E+01   -0.57891E+01  7584   0.792E+01    0.233E+01
DAV:   3    -0.300240824132E+02    0.84211E+01   -0.19888E+01  7792   0.571E+01    0.260E+00
DAV:   4    -0.304065855858E+02   -0.38250E+00   -0.36674E+00  9296   0.176E+01    0.917E+00
DAV:   5    -0.300907549353E+02    0.31583E+00   -0.12503E+00  7280   0.118E+01    0.309E+00
DAV:   6    -0.300162275510E+02    0.74527E-01   -0.44174E-01  8512   0.617E+00    0.960E-01
DAV:   7    -0.300111464711E+02    0.50811E-02   -0.31081E-02  7152   0.212E+00    0.164E-01
DAV:   8    -0.300112123569E+02   -0.65886E-04   -0.13803E-03  7312   0.310E-01    0.176E-01
DAV:   9    -0.300109859817E+02    0.22638E-03   -0.64637E-04  7920   0.270E-01    0.415E-02
DAV:  10    -0.300109795505E+02    0.64313E-05   -0.79893E-05  7744   0.603E-02    0.776E-03
DAV:  11    -0.300109789968E+02    0.55364E-06   -0.69607E-06  8160   0.206E-02    0.504E-03
DAV:  12    -0.300109789081E+02    0.88716E-07   -0.97193E-07  7120   0.104E-02    0.293E-03
DAV:  13    -0.300109788777E+02    0.30403E-07   -0.72220E-08  6720   0.208E-03    0.213E-03
DAV:  14    -0.300109788762E+02    0.14588E-08   -0.10646E-07  7064   0.315E-03    0.273E-04
DAV:  15    -0.300109788821E+02   -0.58790E-08   -0.73162E-09  3584   0.700E-04
   4 F= -.30010979E+02 E0= -.30010787E+02  d E =-.169033E+00  mag=     0.0000
 trial-energy change:   -0.169033  1 .order   -0.166476   -0.260614   -0.072339
 step:   1.2400(harm=  1.2750)  dis= 0.06405  next Energy=   -30.023608 (dE=-0.182E+00)
 bond charge predicted
       N       E                     dE             d eps       ncg     rms          rms(c)
DAV:   1    -0.302253562319E+02   -0.21438E+00   -0.28183E+00  7872   0.265E+01    0.500E+00
DAV:   2    -0.309315253917E+02   -0.70617E+00   -0.52764E+00  7664   0.249E+01    0.874E+00
DAV:   3    -0.300531144804E+02    0.87841E+00   -0.31366E+00  7792   0.186E+01    0.243E+00
DAV:   4    -0.300443551063E+02    0.87594E-02   -0.39731E-01  7784   0.778E+00    0.180E+00
DAV:   5    -0.300250999477E+02    0.19255E-01   -0.69807E-02  7696   0.401E+00    0.450E-01
DAV:   6    -0.300234970447E+02    0.16029E-02   -0.79378E-03  7584   0.716E-01    0.743E-02
DAV:   7    -0.300234555661E+02    0.41479E-04   -0.39104E-04  7392   0.192E-01    0.457E-02
DAV:   8    -0.300234446104E+02    0.10956E-04   -0.46843E-05  8288   0.679E-02    0.109E-02
DAV:   9    -0.300234440776E+02    0.53280E-06   -0.49241E-06  7424   0.253E-02    0.379E-03
DAV:  10    -0.300234437036E+02    0.37395E-06   -0.55810E-07  7304   0.851E-03    0.870E-04
DAV:  11    -0.300234436443E+02    0.59283E-07   -0.47168E-08  6640   0.183E-03    0.377E-04
DAV:  12    -0.300234436503E+02   -0.59190E-08   -0.68992E-09  3768   0.101E-03
   5 F= -.30023444E+02 E0= -.30022782E+02  d E =-.181498E+00  mag=     0.0000
 curvature:  -0.67 expect dE=-0.195E-01 dE for cont linesearch -0.424E-09
 trial: gam= 0.14917 g(F)=  0.525E-02 g(S)=  0.237E-01 ort = 0.138E-04 (trialstep = 0.985E+00)
 search vector abs. value=  0.357E-01
 bond charge predicted
       N       E                     dE             d eps       ncg     rms          rms(c)
DAV:   1    -0.305556338724E+02   -0.53219E+00   -0.49442E+00  7376   0.229E+01    0.736E+00
DAV:   2    -0.326591224201E+02   -0.21035E+01   -0.21525E+01  7968   0.383E+01    0.184E+01
DAV:   3    -0.306583014871E+02    0.20008E+01   -0.21641E+01  7712   0.331E+01    0.944E+00
DAV:   4    -0.300672617859E+02    0.59104E+00   -0.18960E+00  7696   0.211E+01    0.181E+00
DAV:   5    -0.300477753011E+02    0.19486E-01   -0.18116E-01  7192   0.310E+00    0.676E-01
DAV:   6    -0.300439966234E+02    0.37787E-02   -0.12557E-02  8256   0.933E-01    0.155E-01
DAV:   7    -0.300438984008E+02    0.98223E-04   -0.73423E-04  7256   0.257E-01    0.851E-02
DAV:   8    -0.300438687490E+02    0.29652E-04   -0.16251E-04  7752   0.119E-01    0.199E-02
DAV:   9    -0.300438685858E+02    0.16323E-06   -0.17510E-05  7840   0.544E-02    0.769E-03
DAV:  10    -0.300438686485E+02   -0.62710E-07   -0.42763E-06  7328   0.271E-02    0.563E-03
DAV:  11    -0.300438684522E+02    0.19633E-06   -0.87621E-07  7696   0.106E-02    0.106E-03
DAV:  12    -0.300438684599E+02   -0.77544E-08   -0.53680E-08  6264   0.168E-03
   6 F= -.30043868E+02 E0= -.30043091E+02  d E =-.204248E-01  mag=     0.0001
 trial-energy change:   -0.020425  1 .order   -0.020537   -0.028545   -0.012528
 step:   1.8199(harm=  1.7552)  dis= 0.02842  next Energy=   -30.049111 (dE=-0.257E-01)
 bond charge predicted
       N       E                     dE             d eps       ncg     rms          rms(c)
DAV:   1    -0.304080599150E+02   -0.36419E+00   -0.34962E+00  7360   0.192E+01    0.622E+00
DAV:   2    -0.319582493741E+02   -0.15502E+01   -0.15278E+01  7968   0.324E+01    0.156E+01
DAV:   3    -0.304957841740E+02    0.14625E+01   -0.14619E+01  7664   0.286E+01    0.823E+00
DAV:   4    -0.300631630294E+02    0.43262E+00   -0.14523E+00  7728   0.183E+01    0.143E+00
DAV:   5    -0.300514696244E+02    0.11693E-01   -0.12408E-01  7088   0.250E+00    0.556E-01
DAV:   6    -0.300489473336E+02    0.25223E-02   -0.85413E-03  8320   0.784E-01    0.105E-01
DAV:   7    -0.300489363779E+02    0.10956E-04   -0.45701E-04  7160   0.205E-01    0.649E-02
DAV:   8    -0.300489220509E+02    0.14327E-04   -0.89372E-05  7928   0.845E-02    0.120E-02
DAV:   9    -0.300489223389E+02   -0.28792E-06   -0.64062E-06  7176   0.274E-02    0.230E-03
DAV:  10    -0.300489222774E+02    0.61431E-07   -0.58464E-07  7472   0.837E-03    0.786E-04
DAV:  11    -0.300489222855E+02   -0.80909E-08   -0.47494E-08  6480   0.213E-03
   7 F= -.30048922E+02 E0= -.30048322E+02  d E =-.254786E-01  mag=     0.0005
 curvature:  -1.07 expect dE=-0.130E-01 dE for cont linesearch -0.112E-04
 trial: gam= 0.47613 g(F)=  0.502E-03 g(S)=  0.116E-01 ort =-0.611E-03 (trialstep = 0.115E+01)
 search vector abs. value=  0.196E-01
 bond charge predicted
       N       E                     dE             d eps       ncg     rms          rms(c)
DAV:   1    -0.304401161250E+02   -0.39119E+00   -0.53738E+00  7456   0.302E+01    0.672E+00
DAV:   2    -0.316052962082E+02   -0.11652E+01   -0.90827E+00  7536   0.327E+01    0.111E+01
DAV:   3    -0.300833249556E+02    0.15220E+01   -0.49394E+00  7808   0.242E+01    0.226E+00
DAV:   4    -0.301464230171E+02   -0.63098E-01   -0.88151E-01  8080   0.112E+01    0.393E+00
DAV:   5    -0.300587763735E+02    0.87647E-01   -0.32309E-01  8016   0.801E+00    0.735E-01
DAV:   6    -0.300546040088E+02    0.41724E-02   -0.25521E-02  7472   0.125E+00    0.111E-01
DAV:   7    -0.300545494299E+02    0.54579E-04   -0.11440E-03  7424   0.291E-01    0.666E-02
DAV:   8    -0.300545434791E+02    0.59509E-05   -0.16612E-04  8032   0.132E-01    0.366E-02
DAV:   9    -0.300545360726E+02    0.74065E-05   -0.33488E-05  8496   0.636E-02    0.754E-03
DAV:  10    -0.300545352798E+02    0.79278E-06   -0.25214E-06  7440   0.164E-02    0.168E-03
DAV:  11    -0.300545352110E+02    0.68792E-07   -0.11194E-07  6992   0.278E-03    0.124E-03
DAV:  12    -0.300545352163E+02   -0.52441E-08   -0.12047E-08  4160   0.102E-03
   8 F= -.30054535E+02 E0= -.30053947E+02  d E =-.561293E-02  mag=     0.0004
 trial-energy change:   -0.005613  1 .order   -0.005498   -0.013604    0.002608
 step:   0.9730(harm=  0.9666)  dis= 0.00746  next Energy=   -30.054737 (dE=-0.582E-02)
 bond charge predicted
       N       E                     dE             d eps       ncg     rms          rms(c)
DAV:   1    -0.300640831922E+02   -0.95480E-02   -0.13166E-01  7456   0.477E+00    0.103E+00
DAV:   2    -0.300939326907E+02   -0.29849E-01   -0.24589E-01  7576   0.505E+00    0.198E+00
DAV:   3    -0.300587967375E+02    0.35136E-01   -0.15036E-01  7648   0.391E+00    0.906E-01
DAV:   4    -0.300560273552E+02    0.27694E-02   -0.32045E-02  7440   0.253E+00    0.442E-01
DAV:   5    -0.300548316781E+02    0.11957E-02   -0.38359E-03  8032   0.764E-01    0.997E-02
DAV:   6    -0.300547263193E+02    0.10536E-03   -0.33892E-04  7896   0.149E-01    0.163E-02
DAV:   7    -0.300547255439E+02    0.77534E-06   -0.17552E-05  7024   0.403E-02    0.104E-02
DAV:   8    -0.300547257998E+02   -0.25589E-06   -0.25325E-06  8312   0.172E-02    0.326E-03
DAV:   9    -0.300547259737E+02   -0.17393E-06   -0.30258E-07  8104   0.509E-03    0.398E-03
DAV:  10    -0.300547257405E+02    0.23326E-06   -0.34761E-07  8472   0.579E-03    0.363E-03
DAV:  11    -0.300547256582E+02    0.82235E-07   -0.33171E-07  8976   0.468E-03    0.251E-03
DAV:  12    -0.300547256240E+02    0.34281E-07   -0.15114E-06  8792   0.107E-02    0.118E-03
DAV:  13    -0.300547257685E+02   -0.14452E-06   -0.16044E-07  6496   0.433E-03    0.129E-03
DAV:  14    -0.300547257507E+02    0.17788E-07   -0.23998E-08  4176   0.135E-03    0.108E-03
DAV:  15    -0.300547257244E+02    0.26268E-07   -0.23490E-07  8656   0.419E-03    0.329E-04
DAV:  16    -0.300547257499E+02   -0.25500E-07   -0.27704E-08  4688   0.115E-03    0.509E-04
DAV:  17    -0.300547257462E+02    0.37744E-08   -0.30438E-08  3840   0.182E-03
   9 F= -.30054726E+02 E0= -.30054121E+02  d E =-.580346E-02  mag=    -0.0000
 curvature:  -0.80 expect dE=-0.184E-02 dE for cont linesearch -0.553E-07
 trial: gam= 0.18019 g(F)=  0.122E-02 g(S)=  0.107E-02 ort = 0.368E-04 (trialstep = 0.112E+01)
 search vector abs. value=  0.295E-02
 bond charge predicted
       N       E                     dE             d eps       ncg     rms          rms(c)
DAV:   1    -0.300343410116E+02    0.20385E-01   -0.88783E-01  8512   0.270E+01    0.108E+00
DAV:   2    -0.300784976744E+02   -0.44157E-01   -0.49086E-01  7408   0.606E+00    0.159E+00
DAV:   3    -0.300665177187E+02    0.11980E-01   -0.15230E-01  8208   0.431E+00    0.129E+00
DAV:   4    -0.300614318327E+02    0.50859E-02   -0.60256E-02  7608   0.362E+00    0.752E-01
DAV:   5    -0.300565689274E+02    0.48629E-02   -0.11353E-02  8640   0.149E+00    0.877E-02
DAV:   6    -0.300565091265E+02    0.59801E-04   -0.99956E-04  7552   0.247E-01    0.331E-02
DAV:   7    -0.300565036489E+02    0.54775E-05   -0.59310E-05  7872   0.762E-02    0.140E-02
DAV:   8    -0.300565046322E+02   -0.98328E-06   -0.62112E-06  7384   0.212E-02    0.446E-03
DAV:   9    -0.300565050532E+02   -0.42099E-06   -0.54822E-07  8216   0.539E-03    0.126E-03
DAV:  10    -0.300565050090E+02    0.44198E-07   -0.62733E-08  7080   0.289E-03    0.374E-04
DAV:  11    -0.300565050098E+02   -0.78217E-09   -0.39445E-09  3488   0.622E-04
  10 F= -.30056505E+02 E0= -.30055923E+02  d E =-.177926E-02  mag=     0.0001
 trial-energy change:   -0.001779  1 .order   -0.001764   -0.002569   -0.000958
 step:   1.7243(harm=  1.7793)  dis= 0.00591  next Energy=   -30.056768 (dE=-0.204E-02)
 bond charge predicted
       N       E                     dE             d eps       ncg     rms          rms(c)
DAV:   1    -0.300502293668E+02    0.62756E-02   -0.26431E-01  8512   0.147E+01    0.588E-01
DAV:   2    -0.300629485443E+02   -0.12719E-01   -0.14341E-01  7456   0.327E+00    0.842E-01
DAV:   3    -0.300599631340E+02    0.29854E-02   -0.45586E-02  8248   0.238E+00    0.738E-01
DAV:   4    -0.300581715038E+02    0.17916E-02   -0.18720E-02  7632   0.188E+00    0.400E-01
DAV:   5    -0.300567902846E+02    0.13812E-02   -0.32697E-03  8624   0.788E-01    0.485E-02
DAV:   6    -0.300567700597E+02    0.20225E-04   -0.27740E-04  7600   0.131E-01    0.162E-02
DAV:   7    -0.300567688427E+02    0.12170E-05   -0.15840E-05  7928   0.385E-02    0.781E-03
DAV:   8    -0.300567691767E+02   -0.33405E-06   -0.18367E-06  7424   0.119E-02    0.289E-03
DAV:   9    -0.300567693609E+02   -0.18418E-06   -0.22688E-07  8160   0.348E-03    0.283E-03
DAV:  10    -0.300567693421E+02    0.18859E-07   -0.25597E-08  4904   0.183E-03    0.282E-03
DAV:  11    -0.300567693768E+02   -0.34774E-07   -0.32459E-08  4032   0.201E-03    0.311E-03
DAV:  12    -0.300567691716E+02    0.20525E-06   -0.89376E-07  8344   0.906E-03    0.133E-03
DAV:  13    -0.300567693247E+02   -0.15309E-06   -0.90296E-07  8960   0.752E-03    0.252E-03
DAV:  14    -0.300567692867E+02    0.37939E-07   -0.21801E-07  7336   0.504E-03    0.219E-03
DAV:  15    -0.300567692018E+02    0.84898E-07   -0.77270E-07  9032   0.777E-03    0.620E-04
DAV:  16    -0.300567692725E+02   -0.70640E-07   -0.53683E-08  5632   0.209E-03    0.107E-03
DAV:  17    -0.300567692569E+02    0.15552E-07   -0.28715E-08  3720   0.169E-03    0.750E-04
DAV:  18    -0.300567692535E+02    0.34033E-08   -0.17201E-08  3432   0.914E-04
  11 F= -.30056769E+02 E0= -.30056181E+02  d E =-.204351E-02  mag=    -0.0000
 curvature:  -1.13 expect dE=-0.578E-03 dE for cont linesearch -0.935E-07
 trial: gam= 0.17256 g(F)=  0.769E-04 g(S)=  0.435E-03 ort = 0.156E-04 (trialstep = 0.124E+01)
 search vector abs. value=  0.605E-03
 bond charge predicted
       N       E                     dE             d eps       ncg     rms          rms(c)
DAV:   1    -0.300601886165E+02   -0.34194E-02   -0.27847E-01  7664   0.141E+01    0.120E+00
DAV:   2    -0.301156207391E+02   -0.55432E-01   -0.42970E-01  7856   0.635E+00    0.249E+00
DAV:   3    -0.300706245276E+02    0.44996E-01   -0.31159E-01  7712   0.644E+00    0.162E+00
DAV:   4    -0.300580405652E+02    0.12584E-01   -0.72594E-02  7312   0.338E+00    0.301E-01
DAV:   5    -0.300571825407E+02    0.85802E-03   -0.40200E-03  7392   0.595E-01    0.990E-02
DAV:   6    -0.300570959330E+02    0.86608E-04   -0.33820E-04  7952   0.157E-01    0.205E-02
DAV:   7    -0.300570927627E+02    0.31703E-05   -0.29096E-05  7088   0.538E-02    0.148E-02
DAV:   8    -0.300570914182E+02    0.13445E-05   -0.48448E-06  8280   0.202E-02    0.292E-03
DAV:   9    -0.300570912236E+02    0.19461E-06   -0.31648E-07  7320   0.612E-03    0.828E-04
DAV:  10    -0.300570911988E+02    0.24798E-07   -0.34591E-08  5920   0.178E-03    0.612E-04
DAV:  11    -0.300570911990E+02   -0.20373E-09   -0.54439E-09  3624   0.762E-04
  12 F= -.30057091E+02 E0= -.30056508E+02  d E =-.321945E-03  mag=    -0.0001
 trial-energy change:   -0.000322  1 .order   -0.000317   -0.000637    0.000003
 step:   1.2314(harm=  1.2311)  dis= 0.00191  next Energy=   -30.057091 (dE=-0.322E-03)
 bond charge predicted
       N       E                     dE             d eps       ncg     rms          rms(c)
DAV:   1    -0.300570912844E+02   -0.85623E-07   -0.72691E-06  7616   0.716E-02    0.610E-03
DAV:   2    -0.300570925379E+02   -0.12535E-05   -0.11599E-05  7848   0.327E-02    0.130E-02
DAV:   3    -0.300570915632E+02    0.97465E-06   -0.86250E-06  7728   0.321E-02    0.938E-03
DAV:   4    -0.300570911820E+02    0.38125E-06   -0.18791E-06  7432   0.184E-02    0.162E-03
DAV:   5    -0.300570911747E+02    0.72469E-08   -0.11408E-07  6536   0.297E-03    0.921E-04
DAV:   6    -0.300570911868E+02   -0.12031E-07   -0.14950E-08  3440   0.105E-03    0.111E-03
DAV:   7    -0.300570911677E+02    0.19052E-07   -0.25207E-08  3608   0.171E-03    0.802E-04
DAV:   8    -0.300570911638E+02    0.38744E-08   -0.52149E-08  4928   0.186E-03
  13 F= -.30057091E+02 E0= -.30056508E+02  d E =-.321910E-03  mag=     0.0003
 curvature:  -0.72 expect dE=-0.717E-04 dE for cont linesearch -0.197E-07
 trial: gam= 0.20082 g(F)=  0.126E-04 g(S)=  0.867E-04 ort =-0.406E-05 (trialstep = 0.124E+01)
 search vector abs. value=  0.122E-03
 bond charge predicted
       N       E                     dE             d eps       ncg     rms          rms(c)
DAV:   1    -0.300604410886E+02   -0.33499E-02   -0.64539E-02  7456   0.594E+00    0.726E-01
DAV:   2    -0.300773372609E+02   -0.16896E-01   -0.14052E-01  7712   0.381E+00    0.146E+00
DAV:   3    -0.300605234898E+02    0.16814E-01   -0.96364E-02  7696   0.314E+00    0.849E-01
DAV:   4    -0.300574778127E+02    0.30457E-02   -0.20577E-02  7376   0.196E+00    0.226E-01
DAV:   5    -0.300571621994E+02    0.31561E-03   -0.12482E-03  7536   0.386E-01    0.721E-02
DAV:   6    -0.300571079141E+02    0.54285E-04   -0.12912E-04  8112   0.100E-01    0.113E-02
DAV:   7    -0.300571074938E+02    0.42032E-06   -0.72495E-06  7544   0.238E-02    0.594E-03
DAV:   8    -0.300571079073E+02   -0.41348E-06   -0.99908E-07  7992   0.971E-03    0.460E-03
DAV:   9    -0.300571080093E+02   -0.10203E-06   -0.11107E-07  7368   0.256E-03    0.539E-03
DAV:  10    -0.300571075836E+02    0.42568E-06   -0.63702E-07  8688   0.694E-03    0.362E-03
DAV:  11    -0.300571076766E+02   -0.92938E-07   -0.19816E-07  7936   0.331E-03    0.195E-03
DAV:  12    -0.300571077056E+02   -0.29004E-07   -0.17870E-07  7432   0.345E-03    0.604E-04
DAV:  13    -0.300571077611E+02   -0.55554E-07   -0.22795E-08  4288   0.124E-03    0.513E-04
DAV:  14    -0.300571077650E+02   -0.38599E-08   -0.71494E-09  3304   0.940E-04
  14 F= -.30057108E+02 E0= -.30056533E+02  d E =-.166012E-04  mag=    -0.0002
 trial-energy change:   -0.000017  1 .order   -0.000024   -0.000122    0.000075
 step:   0.7020(harm=  0.7668)  dis= 0.00042  next Energy=   -30.057124 (dE=-0.333E-04)
 bond charge predicted
       N       E                     dE             d eps       ncg     rms          rms(c)
DAV:   1    -0.300577467640E+02   -0.63900E-03   -0.12032E-02  7456   0.257E+00    0.315E-01
DAV:   2    -0.300608632032E+02   -0.31164E-02   -0.25701E-02  7696   0.165E+00    0.613E-01
DAV:   3    -0.300577728349E+02    0.30904E-02   -0.17516E-02  7712   0.137E+00    0.365E-01
DAV:   4    -0.300571889975E+02    0.58384E-03   -0.37345E-03  7296   0.804E-01    0.926E-02
DAV:   5    -0.300571361670E+02    0.52830E-04   -0.22775E-04  7520   0.162E-01    0.305E-02
DAV:   6    -0.300571261815E+02    0.99855E-05   -0.21146E-05  7944   0.404E-02    0.569E-03
DAV:   7    -0.300571256647E+02    0.51682E-06   -0.12936E-06  7840   0.970E-03    0.330E-03
DAV:   8    -0.300571255843E+02    0.80408E-07   -0.27677E-07  8008   0.490E-03    0.341E-03
DAV:   9    -0.300571255493E+02    0.34954E-07   -0.52020E-08  5840   0.242E-03    0.338E-03
DAV:  10    -0.300571254339E+02    0.11540E-06   -0.23258E-07  8424   0.429E-03    0.221E-03
DAV:  11    -0.300571253756E+02    0.58355E-07   -0.94114E-07  8864   0.792E-03    0.163E-03
DAV:  12    -0.300571254036E+02   -0.28005E-07   -0.19599E-07  6752   0.479E-03    0.132E-03
DAV:  13    -0.300571253759E+02    0.27689E-07   -0.15324E-07  8016   0.326E-03    0.274E-04
DAV:  14    -0.300571253878E+02   -0.11887E-07   -0.18237E-08  3944   0.106E-03    0.575E-04
DAV:  15    -0.300571253854E+02    0.23410E-08   -0.83021E-09  3248   0.104E-03
  15 F= -.30057125E+02 E0= -.30056547E+02  d E =-.342216E-04  mag=    -0.0001
 curvature:  -0.47 expect dE=-0.367E-05 dE for cont linesearch -0.234E-06
 trial: gam=-0.00601 g(F)=  0.139E-05 g(S)=  0.649E-05 ort = 0.783E-05 (trialstep = 0.113E+01)
 search vector abs. value=  0.779E-05
 reached required accuracy - stopping structural energy minimisation
 writing wavefunctions
