       N       E                     dE             d eps       ncg     rms          rms(c)
DAV:   1     0.627627911312E+03    0.62763E+03   -0.32554E+04 12984   0.157E+03
DAV:   2     0.812939314417E+00   -0.62681E+03   -0.59751E+03 11224   0.506E+02
DAV:   3    -0.340386553118E+02   -0.34852E+02   -0.33210E+02 12800   0.138E+02
DAV:   4    -0.348963695406E+02   -0.85771E+00   -0.85576E+00 12240   0.210E+01
DAV:   5    -0.349207483011E+02   -0.24379E-01   -0.24377E-01 13304   0.374E+00    0.264E+01
DAV:   6    -0.505247704265E+02   -0.15604E+02   -0.14173E+02 12616   0.145E+02    0.366E+01
DAV:   7    -0.299975014788E+02    0.20527E+02   -0.48972E+01 12712   0.931E+01    0.657E+00
DAV:   8    -0.298983511050E+02    0.99150E-01   -0.45739E+00 15752   0.226E+01    0.540E+00
DAV:   9    -0.298140827775E+02    0.84268E-01   -0.13257E+00 13488   0.167E+01    0.325E+00
DAV:  10    -0.297262017606E+02    0.87881E-01   -0.34112E-01 13648   0.700E+00    0.818E-01
DAV:  11    -0.297276513139E+02   -0.14496E-02   -0.74097E-02 14264   0.444E+00    0.920E-01
DAV:  12    -0.297218061882E+02    0.58451E-02   -0.25000E-02 13520   0.288E+00    0.429E-01
DAV:  13    -0.297201321824E+02    0.16740E-02   -0.81594E-03 14424   0.958E-01    0.109E-01
DAV:  14    -0.297201216959E+02    0.10486E-04   -0.60574E-04 12184   0.216E-01    0.100E-01
DAV:  15    -0.297200096505E+02    0.11205E-03   -0.27026E-04 15560   0.153E-01    0.151E-02
DAV:  16    -0.297200103168E+02   -0.66631E-06   -0.20277E-05 12192   0.356E-02    0.564E-03
DAV:  17    -0.297200099433E+02    0.37353E-06   -0.15366E-06 13912   0.109E-02    0.218E-03
DAV:  18    -0.297200099377E+02    0.55898E-08   -0.25982E-07 13976   0.516E-03    0.149E-03
DAV:  19    -0.297200098723E+02    0.65342E-07   -0.80775E-08 11760   0.322E-03    0.292E-04
DAV:  20    -0.297200098537E+02    0.18597E-07   -0.56708E-09  6872   0.744E-04    0.143E-04
DAV:  21    -0.297200098475E+02    0.62737E-08   -0.13004E-09  6528   0.415E-04
   1 F= -.29720010E+02 E0= -.29719605E+02  d E =-.297200E+02  mag=     0.0000
       N       E                     dE             d eps       ncg     rms          rms(c)
DAV:   1    -0.160490060917E+03   -0.13077E+03   -0.16976E+03 11056   0.567E+02    0.867E+01
DAV:   2    -0.742027744072E+02    0.86287E+02   -0.79612E+02 13072   0.246E+02    0.581E+01
DAV:   3    -0.532862502252E+02    0.20917E+02   -0.29383E+02 12784   0.178E+02    0.409E+01
DAV:   4    -0.316077493416E+02    0.21679E+02   -0.67699E+01 12544   0.972E+01    0.504E+00
DAV:   5    -0.314182867582E+02    0.18946E+00   -0.39678E+00 13520   0.223E+01    0.723E+00
DAV:   6    -0.311761319581E+02    0.24215E+00   -0.36685E+00 12432   0.241E+01    0.877E+00
DAV:   7    -0.305175055131E+02    0.65863E+00   -0.20204E+00 13704   0.166E+01    0.316E+00
DAV:   8    -0.305032150557E+02    0.14290E-01   -0.46844E-01 13408   0.843E+00    0.213E+00
DAV:   9    -0.304468715317E+02    0.56344E-01   -0.13768E-01 15056   0.354E+00    0.563E-01
DAV:  10    -0.304442643353E+02    0.26072E-02   -0.16464E-02 13712   0.141E+00    0.197E-01
DAV:  11    -0.304442235245E+02    0.40811E-04   -0.33514E-03 11992   0.621E-01    0.765E-02
DAV:  12    -0.304442126746E+02    0.10850E-04   -0.45829E-04 12696   0.284E-01    0.443E-02
DAV:  13    -0.304442059917E+02    0.66830E-05   -0.60117E-05 15152   0.891E-02    0.949E-03
DAV:  14    -0.304442069463E+02   -0.95469E-06   -0.73088E-06 12440   0.244E-02    0.719E-03
DAV:  15    -0.304442065178E+02    0.42854E-06   -0.17670E-06 12896   0.170E-02    0.110E-03
DAV:  16    -0.304442065927E+02   -0.74884E-07   -0.13090E-07 12280   0.315E-03    0.303E-04
DAV:  17    -0.304442065896E+02    0.30905E-08   -0.64571E-09  7064   0.110E-03
   2 F= -.30444207E+02 E0= -.30444326E+02  d E =-.724197E+00  mag=     0.0000
       N       E                     dE             d eps       ncg     rms          rms(c)
DAV:   1    -0.670480662926E+02   -0.36604E+02   -0.32469E+02 12208   0.196E+02    0.644E+01
DAV:   2    -0.120844813604E+03   -0.53797E+02   -0.68579E+02 12240   0.322E+02    0.598E+01
DAV:   3    -0.383573322362E+02    0.82487E+02   -0.23091E+02 12640   0.145E+02    0.193E+01
DAV:   4    -0.380087769235E+02    0.34856E+00   -0.28372E+00 12192   0.117E+01    0.187E+01
DAV:   5    -0.362831803120E+02    0.17256E+01   -0.41820E-01 13712   0.112E+01    0.163E+01
DAV:   6    -0.321586083374E+02    0.41246E+01   -0.42858E+00 13504   0.219E+01    0.706E+00
DAV:   7    -0.325230384225E+02   -0.36443E+00   -0.98326E+00 15256   0.381E+01    0.167E+01
DAV:   8    -0.317418536255E+02    0.78118E+00   -0.17292E+00 13408   0.107E+01    0.112E+01
DAV:   9    -0.315037277628E+02    0.23813E+00   -0.17898E-01 15864   0.496E+00    0.952E+00
DAV:  10    -0.310427194635E+02    0.46101E+00   -0.51533E-01 14416   0.586E+00    0.489E+00
DAV:  11    -0.310021174749E+02    0.40602E-01   -0.47537E-02 12208   0.156E+00    0.458E+00
DAV:  12    -0.308612066660E+02    0.14091E+00   -0.23050E-01 13424   0.475E+00    0.163E+00
DAV:  13    -0.308440959504E+02    0.17111E-01   -0.42343E-02 15072   0.157E+00    0.740E-01
DAV:  14    -0.308406553871E+02    0.34406E-02   -0.59788E-03 14736   0.947E-01    0.397E-01
DAV:  15    -0.308398862613E+02    0.76913E-03   -0.97672E-03 14992   0.117E+00    0.226E-01
DAV:  16    -0.308398897359E+02   -0.34746E-05   -0.92981E-04 12448   0.295E-01    0.228E-01
DAV:  17    -0.308397103644E+02    0.17937E-03   -0.47432E-04 12880   0.255E-01    0.147E-01
DAV:  18    -0.308395893320E+02    0.12103E-03   -0.15681E-04 14592   0.196E-01    0.855E-02
DAV:  19    -0.308395261919E+02    0.63140E-04   -0.15928E-04 16064   0.165E-01    0.152E-02
DAV:  20    -0.308395250778E+02    0.11140E-05   -0.19894E-05 13456   0.381E-02    0.379E-03
DAV:  21    -0.308395251790E+02   -0.10120E-06   -0.16946E-06 12368   0.115E-02    0.305E-03
DAV:  22    -0.308395250198E+02    0.15921E-06   -0.96370E-07 15984   0.157E-02    0.482E-03
DAV:  23    -0.308395249821E+02    0.37677E-07   -0.41098E-07 12392   0.791E-03    0.165E-03
DAV:  24    -0.308395250169E+02   -0.34745E-07   -0.12897E-07 13376   0.520E-03    0.506E-04
DAV:  25    -0.308395250142E+02    0.27085E-08   -0.16031E-08  7112   0.112E-03
   3 F= -.30839525E+02 E0= -.30839620E+02  d E =-.111952E+01  mag=    -0.0000
       N       E                     dE             d eps       ncg     rms          rms(c)
DAV:   1    -0.316319194173E+02   -0.79239E+00   -0.23337E+01 13024   0.123E+02    0.117E+01
DAV:   2    -0.347421969505E+02   -0.31103E+01   -0.28031E+01 12624   0.587E+01    0.168E+01
DAV:   3    -0.310788967099E+02    0.36633E+01   -0.10498E+01 12656   0.394E+01    0.240E+00
DAV:   4    -0.311661524802E+02   -0.87256E-01   -0.11491E+00 15648   0.142E+01    0.474E+00
DAV:   5    -0.310212106027E+02    0.14494E+00   -0.65795E-01 13408   0.121E+01    0.101E+00
DAV:   6    -0.310267067511E+02   -0.54961E-02   -0.13395E-01 14704   0.511E+00    0.139E+00
DAV:   7    -0.310149785198E+02    0.11728E-01   -0.62107E-02 12752   0.362E+00    0.187E-01
DAV:   8    -0.310148743364E+02    0.10418E-03   -0.35325E-03 12552   0.524E-01    0.813E-02
DAV:   9    -0.310148747663E+02   -0.42988E-06   -0.21397E-04 14400   0.171E-01    0.263E-02
DAV:  10    -0.310148772265E+02   -0.24602E-05   -0.25544E-05 12448   0.509E-02    0.704E-03
DAV:  11    -0.310148763770E+02    0.84947E-06   -0.22548E-06 13200   0.155E-02    0.217E-03
DAV:  12    -0.310148761348E+02    0.24222E-06   -0.28828E-07 13568   0.703E-03    0.848E-04
DAV:  13    -0.310148760821E+02    0.52703E-07   -0.58049E-08 10688   0.317E-03    0.352E-04
DAV:  14    -0.310148760671E+02    0.14959E-07   -0.57264E-09  6576   0.108E-03    0.490E-05
DAV:  15    -0.310148760633E+02    0.38217E-08   -0.12657E-09  6136   0.362E-04
   4 F= -.31014876E+02 E0= -.31015178E+02  d E =-.175351E+00  mag=     0.0000
       N       E                     dE             d eps       ncg     rms          rms(c)
DAV:   1    -0.332238490677E+02   -0.22090E+01   -0.80480E+01 12592   0.228E+02    0.217E+01
DAV:   2    -0.417419066853E+02   -0.85181E+01   -0.87749E+01 12832   0.109E+02    0.259E+01
DAV:   3    -0.312911858941E+02    0.10451E+02   -0.26779E+01 12400   0.691E+01    0.408E+00
DAV:   4    -0.314005966421E+02   -0.10941E+00   -0.30941E+00 15488   0.207E+01    0.680E+00
DAV:   5    -0.311513741761E+02    0.24922E+00   -0.15792E+00 13824   0.203E+01    0.338E+00
DAV:   6    -0.310745392065E+02    0.76835E-01   -0.51390E-01 12776   0.717E+00    0.732E-01
DAV:   7    -0.310744609297E+02    0.78277E-04   -0.48668E-02 13576   0.319E+00    0.744E-01
DAV:   8    -0.310709344925E+02    0.35264E-02   -0.19251E-02 12592   0.235E+00    0.194E-01
DAV:   9    -0.310709594003E+02   -0.24908E-04   -0.19176E-03 12696   0.486E-01    0.626E-02
DAV:  10    -0.310709728181E+02   -0.13418E-04   -0.20153E-04 13160   0.155E-01    0.339E-02
DAV:  11    -0.310709618347E+02    0.10983E-04   -0.48143E-05 13568   0.699E-02    0.540E-03
DAV:  12    -0.310709613700E+02    0.46470E-06   -0.35046E-06 12672   0.207E-02    0.294E-03
DAV:  13    -0.310709610985E+02    0.27152E-06   -0.48541E-07 12856   0.904E-03    0.817E-04
DAV:  14    -0.310709610709E+02    0.27565E-07   -0.58767E-08 11072   0.295E-03    0.279E-04
DAV:  15    -0.310709610566E+02    0.14297E-07   -0.47637E-09  6856   0.937E-04    0.676E-05
DAV:  16    -0.310709610556E+02    0.10841E-08   -0.99683E-10  6368   0.290E-04
   5 F= -.31070961E+02 E0= -.31071117E+02  d E =-.231436E+00  mag=     0.0000
       N       E                     dE             d eps       ncg     rms          rms(c)
DAV:   1    -0.313046454987E+02   -0.23368E+00   -0.80777E+00 13568   0.669E+01    0.641E+00
DAV:   2    -0.321712548874E+02   -0.86661E+00   -0.94170E+00 12848   0.331E+01    0.101E+01
DAV:   3    -0.311534507613E+02    0.10178E+01   -0.40533E+00 12304   0.218E+01    0.295E+00
DAV:   4    -0.311304113608E+02    0.23039E-01   -0.51093E-01 13792   0.112E+01    0.210E+00
DAV:   5    -0.310898924918E+02    0.40519E-01   -0.12518E-01 14528   0.465E+00    0.294E-01
DAV:   6    -0.310933575866E+02   -0.34651E-02   -0.33581E-02 14944   0.266E+00    0.791E-01
DAV:   7    -0.310893061981E+02    0.40514E-02   -0.19912E-02 13008   0.224E+00    0.988E-02
DAV:   8    -0.310893001437E+02    0.60543E-05   -0.11566E-03 12240   0.290E-01    0.581E-02
DAV:   9    -0.310892924250E+02    0.77187E-05   -0.11403E-04 13904   0.103E-01    0.176E-02
DAV:  10    -0.310892942859E+02   -0.18609E-05   -0.12350E-05 12512   0.488E-02    0.335E-03
DAV:  11    -0.310892944766E+02   -0.19065E-06   -0.98604E-07 13296   0.133E-02    0.176E-03
DAV:  12    -0.310892945947E+02   -0.11814E-06   -0.14792E-07 12480   0.474E-03    0.478E-04
DAV:  13    -0.310892946216E+02   -0.26830E-07   -0.12956E-08  7040   0.172E-03    0.146E-04
DAV:  14    -0.310892946319E+02   -0.10332E-07   -0.30284E-09  6400   0.667E-04    0.591E-05
DAV:  15    -0.310892946346E+02   -0.26666E-08   -0.86156E-10  6048   0.307E-04
   6 F= -.31089295E+02 E0= -.31089187E+02  d E =-.249770E+00  mag=     0.0000
       N       E                     dE             d eps       ncg     rms          rms(c)
DAV:   1    -0.321893139518E+02   -0.11000E+01   -0.61529E+01 12592   0.206E+02    0.165E+01
DAV:   2    -0.381707412921E+02   -0.59814E+01   -0.80263E+01 12896   0.887E+01    0.263E+01
DAV:   3    -0.317012082984E+02    0.64695E+01   -0.27776E+01 12464   0.541E+01    0.790E+00
DAV:   4    -0.314186250256E+02    0.28258E+00   -0.27728E+00 13600   0.277E+01    0.506E+00
DAV:   5    -0.311733288550E+02    0.24530E+00   -0.74047E-01 13648   0.117E+01    0.825E-01
DAV:   6    -0.311783079222E+02   -0.49791E-02   -0.13179E-01 16208   0.501E+00    0.135E+00
DAV:   7    -0.311663659314E+02    0.11942E-01   -0.65723E-02 12704   0.431E+00    0.296E-01
DAV:   8    -0.311659512846E+02    0.41465E-03   -0.64651E-03 12576   0.835E-01    0.212E-01
DAV:   9    -0.311657744587E+02    0.17683E-03   -0.22168E-03 13792   0.562E-01    0.113E-01
DAV:  10    -0.311656997620E+02    0.74697E-04   -0.35818E-04 12496   0.242E-01    0.302E-02
DAV:  11    -0.311656937323E+02    0.60297E-05   -0.43212E-05 12688   0.698E-02    0.580E-03
DAV:  12    -0.311656940051E+02   -0.27280E-06   -0.25589E-06 12736   0.193E-02    0.387E-03
DAV:  13    -0.311656940280E+02   -0.22912E-07   -0.37790E-07 13264   0.702E-03    0.731E-04
DAV:  14    -0.311656940731E+02   -0.45060E-07   -0.41230E-08 10704   0.221E-03    0.188E-04
DAV:  15    -0.311656940787E+02   -0.55697E-08   -0.41004E-09  6432   0.874E-04
   7 F= -.31165694E+02 E0= -.31165872E+02  d E =-.763994E-01  mag=     0.0000
       N       E                     dE             d eps       ncg     rms          rms(c)
DAV:   1    -0.311862815787E+02   -0.20588E-01   -0.11518E+00 12800   0.296E+01    0.245E+00
DAV:   2    -0.313441344634E+02   -0.15785E+00   -0.14999E+00 12544   0.132E+01    0.425E+00
DAV:   3    -0.311928152931E+02    0.15132E+00   -0.85082E-01 12176   0.101E+01    0.200E+00
DAV:   4    -0.311708983781E+02    0.21917E-01   -0.14767E-01 12800   0.631E+00    0.592E-01
DAV:   5    -0.311670838091E+02    0.38146E-02   -0.10819E-02 14224   0.120E+00    0.147E-01
DAV:   6    -0.311677854623E+02   -0.70165E-03   -0.58191E-03 13920   0.139E+00    0.347E-01
DAV:   7    -0.311669368532E+02    0.84861E-03   -0.34101E-03 12960   0.100E+00    0.336E-02
DAV:   8    -0.311669452877E+02   -0.84345E-05   -0.18992E-04 12320   0.101E-01    0.200E-02
DAV:   9    -0.311669450347E+02    0.25305E-06   -0.14804E-05 15648   0.536E-02    0.708E-03
DAV:  10    -0.311669454783E+02   -0.44367E-06   -0.17156E-06 12800   0.192E-02    0.966E-04
DAV:  11    -0.311669455004E+02   -0.22015E-07   -0.10638E-07 12432   0.321E-03    0.484E-04
DAV:  12    -0.311669455175E+02   -0.17177E-07   -0.80328E-09  6848   0.102E-03    0.129E-04
DAV:  13    -0.311669455291E+02   -0.11600E-07   -0.19750E-09  6448   0.509E-04    0.431E-05
DAV:  14    -0.311669455294E+02   -0.27103E-09   -0.51614E-10  5968   0.233E-04
   8 F= -.31166946E+02 E0= -.31167120E+02  d E =-.776509E-01  mag=    -0.0000
       N       E                     dE             d eps       ncg     rms          rms(c)
DAV:   1    -0.304541154301E+02    0.71283E+00   -0.47390E+01 13104   0.206E+02    0.108E+01
DAV:   2    -0.334383802208E+02   -0.29843E+01   -0.33131E+01 12432   0.593E+01    0.128E+01
DAV:   3    -0.313487060427E+02    0.20897E+01   -0.64668E+00 12512   0.363E+01    0.338E+00
DAV:   4    -0.314983912404E+02   -0.14969E+00   -0.18976E+00 13872   0.211E+01    0.713E+00
DAV:   5    -0.312192954592E+02    0.27910E+00   -0.19468E+00 12480   0.137E+01    0.128E+00
DAV:   6    -0.312147723847E+02    0.45231E-02   -0.12899E-01 14240   0.502E+00    0.969E-01
DAV:   7    -0.312087535180E+02    0.60189E-02   -0.32495E-02 12368   0.321E+00    0.274E-01
DAV:   8    -0.312085085399E+02    0.24498E-03   -0.53344E-03 13648   0.777E-01    0.135E-01
DAV:   9    -0.312084684120E+02    0.40128E-04   -0.59542E-04 12336   0.300E-01    0.336E-02
DAV:  10    -0.312084819899E+02   -0.13578E-04   -0.46571E-05 13744   0.609E-02    0.958E-03
DAV:  11    -0.312084816486E+02    0.34123E-06   -0.37741E-06 13312   0.195E-02    0.253E-03
DAV:  12    -0.312084814265E+02    0.22215E-06   -0.29856E-07 15152   0.631E-03    0.699E-04
DAV:  13    -0.312084813616E+02    0.64885E-07   -0.36940E-08 10848   0.208E-03    0.253E-04
DAV:  14    -0.312084813527E+02    0.88876E-08   -0.37116E-09  6784   0.809E-04
   9 F= -.31208481E+02 E0= -.31208235E+02  d E =-.415358E-01  mag=     0.0000
       N       E                     dE             d eps       ncg     rms          rms(c)
DAV:   1    -0.311685332594E+02    0.39948E-01   -0.22208E+00 12960   0.449E+01    0.226E+00
DAV:   2    -0.313021511043E+02   -0.13362E+00   -0.15193E+00 12496   0.128E+01    0.271E+00
DAV:   3    -0.312184350928E+02    0.83716E-01   -0.30148E-01 12256   0.708E+00    0.827E-01
DAV:   4    -0.312176544409E+02    0.78065E-03   -0.60362E-02 14464   0.381E+00    0.111E+00
DAV:   5    -0.312105908663E+02    0.70636E-02   -0.55970E-02 12672   0.328E+00    0.366E-01
DAV:   6    -0.312111192134E+02   -0.52835E-03   -0.13737E-02 14224   0.188E+00    0.429E-01
DAV:   7    -0.312097850457E+02    0.13342E-02   -0.51772E-03 12912   0.126E+00    0.439E-02
DAV:   8    -0.312097985909E+02   -0.13545E-04   -0.35881E-04 12576   0.156E-01    0.325E-02
DAV:   9    -0.312097949482E+02    0.36426E-05   -0.33224E-05 14272   0.880E-02    0.973E-03
DAV:  10    -0.312097955660E+02   -0.61777E-06   -0.40688E-06 12688   0.230E-02    0.167E-03
DAV:  11    -0.312097954535E+02    0.11254E-06   -0.29388E-07 12704   0.664E-03    0.803E-04
DAV:  12    -0.312097954049E+02    0.48605E-07   -0.31371E-08 10080   0.252E-03    0.220E-04
DAV:  13    -0.312097953904E+02    0.14459E-07   -0.48059E-09  6272   0.912E-04    0.801E-05
DAV:  14    -0.312097953862E+02    0.42473E-08   -0.12465E-09  5920   0.381E-04
  10 F= -.31209795E+02 E0= -.31209402E+02  d E =-.428499E-01  mag=     0.0000
       N       E                     dE             d eps       ncg     rms          rms(c)
DAV:   1    -0.314330663654E+02   -0.22327E+00   -0.39261E+00 12304   0.497E+01    0.582E+00
DAV:   2    -0.322003294617E+02   -0.76726E+00   -0.69652E+00 12352   0.301E+01    0.881E+00
DAV:   3    -0.312347833368E+02    0.96555E+00   -0.27313E+00 12192   0.223E+01    0.169E+00
DAV:   4    -0.312327083862E+02    0.20750E-02   -0.24218E-01 15152   0.600E+00    0.961E-01
DAV:   5    -0.312244583402E+02    0.82500E-02   -0.25928E-02 14672   0.233E+00    0.417E-01
DAV:   6    -0.312249409836E+02   -0.48264E-03   -0.13085E-02 14368   0.206E+00    0.514E-01
DAV:   7    -0.312230517702E+02    0.18892E-02   -0.81424E-03 12960   0.162E+00    0.588E-02
DAV:   8    -0.312230360634E+02    0.15707E-04   -0.54912E-04 12544   0.200E-01    0.309E-02
DAV:   9    -0.312230290138E+02    0.70496E-05   -0.34271E-05 14608   0.806E-02    0.734E-03
DAV:  10    -0.312230284043E+02    0.60952E-06   -0.40909E-06 13360   0.204E-02    0.299E-03
DAV:  11    -0.312230281659E+02    0.23840E-06   -0.43569E-07 12560   0.726E-03    0.879E-04
DAV:  12    -0.312230280867E+02    0.79141E-07   -0.45753E-08 11328   0.350E-03    0.318E-04
DAV:  13    -0.312230280644E+02    0.22366E-07   -0.56515E-09  6640   0.119E-03    0.820E-05
DAV:  14    -0.312230280580E+02    0.63828E-08   -0.14788E-09  6176   0.536E-04
  11 F= -.31223028E+02 E0= -.31222573E+02  d E =-.132327E-01  mag=     0.0000
       N       E                     dE             d eps       ncg     rms          rms(c)
DAV:   1    -0.312258917432E+02   -0.28637E-02   -0.52308E-02 12272   0.584E+00    0.653E-01
DAV:   2    -0.312355840911E+02   -0.96923E-02   -0.89551E-02 12416   0.337E+00    0.104E+00
DAV:   3    -0.312237960961E+02    0.11788E-01   -0.42016E-02 12208   0.259E+00    0.342E-01
DAV:   4    -0.312232851171E+02    0.51098E-03   -0.52734E-03 13184   0.101E+00    0.104E-01
DAV:   5    -0.312231850851E+02    0.10003E-03   -0.29832E-04 13072   0.208E-01    0.352E-02
DAV:   6    -0.312231762918E+02    0.87933E-05   -0.46804E-05 14448   0.103E-01    0.225E-02
DAV:   7    -0.312231732410E+02    0.30508E-05   -0.25217E-05 12944   0.998E-02    0.840E-03
DAV:   8    -0.312231722272E+02    0.10138E-05   -0.34291E-06 13584   0.284E-02    0.286E-03
DAV:   9    -0.312231720832E+02    0.14399E-06   -0.39244E-07 13408   0.638E-03    0.807E-04
DAV:  10    -0.312231720177E+02    0.65504E-07   -0.26500E-08 10640   0.198E-03    0.247E-04
DAV:  11    -0.312231719991E+02    0.18656E-07   -0.48091E-09  6208   0.812E-04    0.567E-05
DAV:  12    -0.312231719908E+02    0.83073E-08   -0.11647E-09  5744   0.399E-04
  12 F= -.31223172E+02 E0= -.31222715E+02  d E =-.133766E-01  mag=    -0.0000
       N       E                     dE             d eps       ncg     rms          rms(c)
DAV:   1    -0.313903084083E+02   -0.16714E+00   -0.28846E+00 12272   0.421E+01    0.484E+00
DAV:   2    -0.319004021502E+02   -0.51009E+00   -0.49543E+00 12624   0.252E+01    0.815E+00
DAV:   3    -0.312987248849E+02    0.60168E+00   -0.31681E+00 12304   0.191E+01    0.329E+00
DAV:   4    -0.312326507578E+02    0.66074E-01   -0.39213E-01 12640   0.972E+00    0.929E-01
DAV:   5    -0.312278662171E+02    0.47845E-02   -0.32373E-02 13056   0.238E+00    0.546E-01
DAV:   6    -0.312265667353E+02    0.12995E-02   -0.14623E-02 12832   0.213E+00    0.350E-01
DAV:   7    -0.312255601805E+02    0.10066E-02   -0.29705E-03 12848   0.867E-01    0.455E-02
DAV:   8    -0.312255547292E+02    0.54513E-05   -0.27072E-04 12464   0.160E-01    0.199E-02
DAV:   9    -0.312255542930E+02    0.43621E-06   -0.16264E-05 12400   0.388E-02    0.561E-03
DAV:  10    -0.312255545503E+02   -0.25736E-06   -0.22177E-06 13584   0.158E-02    0.294E-03
DAV:  11    -0.312255547026E+02   -0.15229E-06   -0.28428E-07 13376   0.790E-03    0.434E-04
DAV:  12    -0.312255547514E+02   -0.48814E-07   -0.25047E-08  8832   0.175E-03    0.217E-04
DAV:  13    -0.312255547699E+02   -0.18434E-07   -0.28293E-09  6480   0.654E-04    0.951E-05
DAV:  14    -0.312255547783E+02   -0.84019E-08   -0.10219E-09  5888   0.347E-04
  13 F= -.31225555E+02 E0= -.31225162E+02  d E =-.238279E-02  mag=     0.0000
       N       E                     dE             d eps       ncg     rms          rms(c)
DAV:   1    -0.312469813112E+02   -0.21427E-01   -0.34760E-01 12304   0.146E+01    0.173E+00
DAV:   2    -0.313134201073E+02   -0.66439E-01   -0.60740E-01 12496   0.908E+00    0.273E+00
DAV:   3    -0.312308596506E+02    0.82560E-01   -0.28496E-01 12272   0.780E+00    0.935E-01
DAV:   4    -0.312273793893E+02    0.34803E-02   -0.46323E-02 12800   0.294E+00    0.303E-01
DAV:   5    -0.312266002202E+02    0.77917E-03   -0.25980E-03 13760   0.650E-01    0.111E-01
DAV:   6    -0.312265430526E+02    0.57168E-04   -0.53697E-04 14832   0.372E-01    0.858E-02
DAV:   7    -0.312264957355E+02    0.47317E-04   -0.29592E-04 12864   0.317E-01    0.191E-02
DAV:   8    -0.312264919043E+02    0.38313E-05   -0.25013E-05 12384   0.623E-02    0.758E-03
DAV:   9    -0.312264913682E+02    0.53613E-06   -0.22695E-06 13744   0.149E-02    0.222E-03
DAV:  10    -0.312264911991E+02    0.16908E-06   -0.21115E-07 12592   0.490E-03    0.627E-04
DAV:  11    -0.312264911441E+02    0.54994E-07   -0.17767E-08  8304   0.170E-03    0.150E-04
DAV:  12    -0.312264911244E+02    0.19696E-07   -0.45445E-09  6304   0.816E-04    0.114E-04
DAV:  13    -0.312264911219E+02    0.24593E-08   -0.11277E-09  5776   0.376E-04
  14 F= -.31226491E+02 E0= -.31226047E+02  d E =-.331913E-02  mag=     0.0000
       N       E                     dE             d eps       ncg     rms          rms(c)
DAV:   1    -0.312217742365E+02    0.47169E-02   -0.58388E-01 12912   0.224E+01    0.133E+00
DAV:   2    -0.312707934687E+02   -0.49019E-01   -0.49646E-01 12416   0.724E+00    0.187E+00
DAV:   3    -0.312299116844E+02    0.40882E-01   -0.13591E-01 12160   0.441E+00    0.449E-01
DAV:   4    -0.312303694271E+02   -0.45774E-03   -0.17199E-02 14880   0.188E+00    0.530E-01
DAV:   5    -0.312281524898E+02    0.22169E-02   -0.78388E-03 14304   0.141E+00    0.950E-02
DAV:   6    -0.312284530491E+02   -0.30056E-03   -0.26360E-03 14992   0.100E+00    0.228E-01
DAV:   7    -0.312280805825E+02    0.37247E-03   -0.15543E-03 12832   0.720E-01    0.209E-02
DAV:   8    -0.312280823988E+02   -0.18162E-05   -0.10544E-04 12224   0.857E-02    0.149E-02
DAV:   9    -0.312280812513E+02    0.11475E-05   -0.73790E-06 13088   0.394E-02    0.495E-03
DAV:  10    -0.312280810206E+02    0.23076E-06   -0.95468E-07 12672   0.967E-03    0.115E-03
DAV:  11    -0.312280809454E+02    0.75119E-07   -0.81222E-08 12240   0.321E-03    0.455E-04
DAV:  12    -0.312280809243E+02    0.21166E-07   -0.10786E-08  6864   0.155E-03    0.124E-04
DAV:  13    -0.312280809165E+02    0.78071E-08   -0.20441E-09  5888   0.567E-04
  15 F= -.31228081E+02 E0= -.31227703E+02  d E =-.158979E-02  mag=     0.0000
       N       E                     dE             d eps       ncg     rms          rms(c)
DAV:   1    -0.312229422363E+02    0.51387E-02   -0.52814E-01 12928   0.213E+01    0.127E+00
DAV:   2    -0.312672355940E+02   -0.44293E-01   -0.44946E-01 12384   0.690E+00    0.178E+00
DAV:   3    -0.312303087317E+02    0.36927E-01   -0.12370E-01 12128   0.422E+00    0.447E-01
DAV:   4    -0.312305759232E+02   -0.26719E-03   -0.15968E-02 14688   0.181E+00    0.490E-01
DAV:   5    -0.312286297843E+02    0.19461E-02   -0.66211E-03 14368   0.128E+00    0.947E-02
DAV:   6    -0.312289368008E+02   -0.30702E-03   -0.26641E-03 14624   0.102E+00    0.230E-01
DAV:   7    -0.312285565284E+02    0.38027E-03   -0.15655E-03 12816   0.723E-01    0.194E-02
DAV:   8    -0.312285586565E+02   -0.21282E-05   -0.10120E-04 12256   0.821E-02    0.141E-02
DAV:   9    -0.312285576413E+02    0.10153E-05   -0.66479E-06 13392   0.376E-02    0.481E-03
DAV:  10    -0.312285574134E+02    0.22789E-06   -0.84110E-07 12656   0.901E-03    0.103E-03
DAV:  11    -0.312285573440E+02    0.69371E-07   -0.67826E-08 11856   0.292E-03    0.431E-04
DAV:  12    -0.312285573214E+02    0.22606E-07   -0.98844E-09  6688   0.148E-03    0.118E-04
DAV:  13    -0.312285573147E+02    0.67012E-08   -0.18934E-09  5840   0.552E-04
  16 F= -.31228557E+02 E0= -.31228291E+02  d E =-.206619E-02  mag=    -0.0000
       N       E                     dE             d eps       ncg     rms          rms(c)
DAV:   1    -0.312137454168E+02    0.14812E-01   -0.46154E-01 14704   0.228E+01    0.603E-01
DAV:   2    -0.312326229281E+02   -0.18878E-01   -0.21948E-01 12000   0.408E+00    0.616E-01
DAV:   3    -0.312316207305E+02    0.10022E-02   -0.27471E-02 12560   0.247E+00    0.516E-01
DAV:   4    -0.312303075235E+02    0.13132E-02   -0.12907E-02 13616   0.187E+00    0.321E-01
DAV:   5    -0.312292702687E+02    0.10373E-02   -0.39392E-03 14544   0.920E-01    0.105E-01
DAV:   6    -0.312294589187E+02   -0.18865E-03   -0.23325E-03 13344   0.960E-01    0.187E-01
DAV:   7    -0.312292059424E+02    0.25298E-03   -0.97516E-04 12592   0.563E-01    0.156E-02
DAV:   8    -0.312292101602E+02   -0.42178E-05   -0.60131E-05 12816   0.602E-02    0.103E-02
DAV:   9    -0.312292097302E+02    0.43005E-06   -0.36945E-06 15536   0.255E-02    0.334E-03
DAV:  10    -0.312292099893E+02   -0.25911E-06   -0.40478E-07 12608   0.587E-03    0.811E-04
DAV:  11    -0.312292099832E+02    0.60700E-08   -0.31612E-08  8960   0.232E-03
  17 F= -.31229210E+02 E0= -.31229011E+02  d E =-.652669E-03  mag=     0.0000
       N       E                     dE             d eps       ncg     rms          rms(c)
DAV:   1    -0.312260104893E+02    0.31995E-02   -0.97309E-02 14672   0.105E+01    0.277E-01
DAV:   2    -0.312300006462E+02   -0.39902E-02   -0.46491E-02 11984   0.188E+00    0.279E-01
DAV:   3    -0.312297893452E+02    0.21130E-03   -0.56565E-03 12496   0.115E+00    0.235E-01
DAV:   4    -0.312295218168E+02    0.26753E-03   -0.27652E-03 13568   0.848E-01    0.149E-01
DAV:   5    -0.312293015741E+02    0.22024E-03   -0.84138E-04 14576   0.428E-01    0.492E-02
DAV:   6    -0.312293404245E+02   -0.38850E-04   -0.49570E-04 13328   0.414E-01    0.854E-02
DAV:   7    -0.312292877229E+02    0.52702E-04   -0.20391E-04 12560   0.259E-01    0.713E-03
DAV:   8    -0.312292886912E+02   -0.96830E-06   -0.12442E-05 13136   0.271E-02    0.466E-03
DAV:   9    -0.312292886055E+02    0.85671E-07   -0.75112E-07 15536   0.112E-02    0.153E-03
DAV:  10    -0.312292886831E+02   -0.77516E-07   -0.80047E-08 11344   0.262E-03    0.358E-04
DAV:  11    -0.312292886814E+02    0.16698E-08   -0.66745E-09  6208   0.114E-03
  18 F= -.31229289E+02 E0= -.31229119E+02  d E =-.731367E-03  mag=    -0.0000
       N       E                     dE             d eps       ncg     rms          rms(c)
DAV:   1    -0.312318958771E+02   -0.26072E-02   -0.22880E-01 12976   0.158E+01    0.110E+00
DAV:   2    -0.312617303186E+02   -0.29834E-01   -0.27994E-01 12480   0.582E+00    0.165E+00
DAV:   3    -0.312309279565E+02    0.30802E-01   -0.11006E-01 12208   0.429E+00    0.534E-01
DAV:   4    -0.312298337498E+02    0.10942E-02   -0.13245E-02 13072   0.160E+00    0.212E-01
DAV:   5    -0.312295199826E+02    0.31377E-03   -0.98783E-04 13120   0.422E-01    0.116E-01
DAV:   6    -0.312295504533E+02   -0.30471E-04   -0.10570E-03 13184   0.633E-01    0.141E-01
DAV:   7    -0.312293963117E+02    0.15414E-03   -0.52793E-04 12992   0.407E-01    0.144E-02
DAV:   8    -0.312293953911E+02    0.92062E-06   -0.41495E-05 12192   0.559E-02    0.933E-03
DAV:   9    -0.312293947186E+02    0.67250E-06   -0.24645E-06 13424   0.225E-02    0.245E-03
DAV:  10    -0.312293945622E+02    0.15640E-06   -0.29168E-07 13408   0.459E-03    0.837E-04
DAV:  11    -0.312293945023E+02    0.59947E-07   -0.45722E-08 10944   0.274E-03    0.274E-04
DAV:  12    -0.312293944854E+02    0.16895E-07   -0.63942E-09  6256   0.129E-03    0.102E-04
DAV:  13    -0.312293944766E+02    0.87803E-08   -0.73770E-10  5696   0.325E-04
  19 F= -.31229394E+02 E0= -.31229206E+02  d E =-.105795E-03  mag=     0.0000
       N       E                     dE             d eps       ncg     rms          rms(c)
DAV:   1    -0.312296276522E+02   -0.23317E-03   -0.19824E-02 12912   0.464E+00    0.322E-01
DAV:   2    -0.312321599400E+02   -0.25323E-02   -0.24146E-02 12480   0.170E+00    0.491E-01
DAV:   3    -0.312296032235E+02    0.25567E-02   -0.10134E-02 12176   0.124E+00    0.182E-01
DAV:   4    -0.312294501751E+02    0.15305E-03   -0.13281E-03 12992   0.560E-01    0.626E-02
DAV:   5    -0.312294240508E+02    0.26124E-04   -0.89737E-05 12640   0.119E-01    0.320E-02
DAV:   6    -0.312294292761E+02   -0.52253E-05   -0.90486E-05 13184   0.176E-01    0.422E-02
DAV:   7    -0.312294166167E+02    0.12659E-04   -0.46555E-05 12912   0.129E-01    0.402E-03
DAV:   8    -0.312294169443E+02   -0.32762E-06   -0.32962E-06 12288   0.142E-02    0.253E-03
DAV:   9    -0.312294169727E+02   -0.28353E-07   -0.18177E-07 14224   0.612E-03    0.668E-04
DAV:  10    -0.312294170145E+02   -0.41760E-07   -0.16309E-08  7328   0.136E-03    0.234E-04
DAV:  11    -0.312294170301E+02   -0.15671E-07   -0.61318E-09  5824   0.994E-04    0.882E-05
DAV:  12    -0.312294170358E+02   -0.56716E-08   -0.12364E-09  5504   0.407E-04
  20 F= -.31229417E+02 E0= -.31229234E+02  d E =-.128354E-03  mag=     0.0000
       N       E                     dE             d eps       ncg     rms          rms(c)
DAV:   1    -0.312234357398E+02    0.59813E-02   -0.16505E-01 16768   0.150E+01    0.295E-01
DAV:   2    -0.312314475243E+02   -0.80118E-02   -0.79745E-02 12144   0.234E+00    0.437E-01
DAV:   3    -0.312299679749E+02    0.14795E-02   -0.11411E-02 12080   0.147E+00    0.247E-01
DAV:   4    -0.312296639013E+02    0.30407E-03   -0.25855E-03 12384   0.798E-01    0.886E-02
DAV:   5    -0.312296076637E+02    0.56238E-04   -0.14341E-04 13904   0.164E-01    0.492E-02
DAV:   6    -0.312295837921E+02    0.23872E-04   -0.76936E-05 13056   0.127E-01    0.125E-02
DAV:   7    -0.312295841668E+02   -0.37465E-06   -0.19458E-05 13552   0.676E-02    0.128E-02
DAV:   8    -0.312295832401E+02    0.92669E-06   -0.73371E-06 12352   0.457E-02    0.448E-03
DAV:   9    -0.312295832044E+02    0.35667E-07   -0.64252E-07 13312   0.794E-03    0.181E-03
DAV:  10    -0.312295832437E+02   -0.39301E-07   -0.12219E-07 13168   0.333E-03    0.483E-04
DAV:  11    -0.312295832463E+02   -0.26230E-08   -0.92998E-09  6016   0.149E-03
  21 F= -.31229583E+02 E0= -.31229386E+02  d E =-.166211E-03  mag=    -0.0000
       N       E                     dE             d eps       ncg     rms          rms(c)
DAV:   1    -0.312281570187E+02    0.14262E-02   -0.39523E-02 16800   0.733E+00    0.145E-01
DAV:   2    -0.312300729059E+02   -0.19159E-02   -0.19073E-02 12144   0.115E+00    0.215E-01
DAV:   3    -0.312297109586E+02    0.36195E-03   -0.27224E-03 12080   0.725E-01    0.121E-01
DAV:   4    -0.312296398941E+02    0.71065E-04   -0.62326E-04 12384   0.391E-01    0.432E-02
DAV:   5    -0.312296266121E+02    0.13282E-04   -0.34600E-05 13888   0.809E-02    0.238E-02
DAV:   6    -0.312296215388E+02    0.50732E-05   -0.18105E-05 12800   0.615E-02    0.688E-03
DAV:   7    -0.312296216035E+02   -0.64698E-07   -0.45818E-06 14704   0.329E-02    0.594E-03
DAV:   8    -0.312296214049E+02    0.19863E-06   -0.17346E-06 12304   0.211E-02    0.213E-03
DAV:   9    -0.312296214172E+02   -0.12282E-07   -0.18098E-07 12368   0.415E-03    0.849E-04
DAV:  10    -0.312296214366E+02   -0.19385E-07   -0.20162E-08  6800   0.148E-03    0.199E-04
DAV:  11    -0.312296214416E+02   -0.50604E-08   -0.37536E-09  5744   0.809E-04
  22 F= -.31229621E+02 E0= -.31229417E+02  d E =-.204406E-03  mag=    -0.0000
       N       E                     dE             d eps       ncg     rms          rms(c)
DAV:   1    -0.312237241947E+02    0.58972E-02   -0.15777E-01 16736   0.146E+01    0.288E-01
DAV:   2    -0.312313894715E+02   -0.76653E-02   -0.76286E-02 12144   0.229E+00    0.426E-01
DAV:   3    -0.312299943094E+02    0.13952E-02   -0.10893E-02 12080   0.143E+00    0.242E-01
DAV:   4    -0.312297027508E+02    0.29156E-03   -0.24749E-03 12384   0.779E-01    0.870E-02
DAV:   5    -0.312296485706E+02    0.54180E-04   -0.13743E-04 13936   0.160E-01    0.483E-02
DAV:   6    -0.312296256551E+02    0.22916E-04   -0.74672E-05 13040   0.125E-01    0.125E-02
DAV:   7    -0.312296260376E+02   -0.38252E-06   -0.19104E-05 13536   0.677E-02    0.128E-02
DAV:   8    -0.312296250789E+02    0.95864E-06   -0.73074E-06 12352   0.448E-02    0.439E-03
DAV:   9    -0.312296250478E+02    0.31161E-07   -0.64521E-07 13472   0.775E-03    0.178E-03
DAV:  10    -0.312296250839E+02   -0.36142E-07   -0.11971E-07 13024   0.329E-03    0.479E-04
DAV:  11    -0.312296250894E+02   -0.55043E-08   -0.86984E-09  5952   0.144E-03
  23 F= -.31229625E+02 E0= -.31229406E+02  d E =-.208054E-03  mag=    -0.0000
       N       E                     dE             d eps       ncg     rms          rms(c)
DAV:   1    -0.312320704067E+02   -0.24453E-02   -0.68695E-02 12720   0.688E+00    0.667E-01
DAV:   2    -0.312428749459E+02   -0.10805E-01   -0.99272E-02 12480   0.359E+00    0.109E+00
DAV:   3    -0.312311018945E+02    0.11773E-01   -0.49792E-02 12224   0.318E+00    0.487E-01
DAV:   4    -0.312299717186E+02    0.11302E-02   -0.10452E-02 12336   0.144E+00    0.131E-01
DAV:   5    -0.312297849882E+02    0.18673E-03   -0.59396E-04 12880   0.264E-01    0.315E-02
DAV:   6    -0.312297780536E+02    0.69347E-05   -0.53475E-05 13456   0.712E-02    0.112E-02
DAV:   7    -0.312297797565E+02   -0.17029E-05   -0.22055E-05 13456   0.863E-02    0.204E-02
DAV:   8    -0.312297765300E+02    0.32265E-05   -0.11050E-05 12976   0.607E-02    0.417E-03
DAV:   9    -0.312297762883E+02    0.24165E-06   -0.10852E-06 12560   0.891E-03    0.147E-03
DAV:  10    -0.312297762163E+02    0.72021E-07   -0.91520E-08 12144   0.427E-03    0.411E-04
DAV:  11    -0.312297761950E+02    0.21248E-07   -0.14265E-08  6320   0.142E-03    0.127E-04
DAV:  12    -0.312297761903E+02    0.47676E-08   -0.28479E-09  5712   0.755E-04
  24 F= -.31229776E+02 E0= -.31229560E+02  d E =-.151101E-03  mag=     0.0000
       N       E                     dE             d eps       ncg     rms          rms(c)
DAV:   1    -0.312297762719E+02   -0.76903E-07   -0.22377E-06 12656   0.393E-02    0.381E-03
DAV:   2    -0.312297765016E+02   -0.22964E-06   -0.32348E-06 12480   0.204E-02    0.629E-03
DAV:   3    -0.312297761945E+02    0.30712E-06   -0.17363E-06 12256   0.176E-02    0.295E-03
DAV:   4    -0.312297761567E+02    0.37775E-07   -0.35416E-07 12336   0.885E-03    0.741E-04
DAV:   5    -0.312297761652E+02   -0.85638E-08   -0.17475E-08  5872   0.147E-03
  25 F= -.31229776E+02 E0= -.31229560E+02  d E =-.151076E-03  mag=     0.0000
       N       E                     dE             d eps       ncg     rms          rms(c)
DAV:   1    -0.312317868578E+02   -0.20107E-02   -0.69197E-02 12704   0.758E+00    0.659E-01
DAV:   2    -0.312411625070E+02   -0.93756E-02   -0.92000E-02 12560   0.343E+00    0.991E-01
DAV:   3    -0.312304100271E+02    0.10752E-01   -0.38634E-02 12192   0.234E+00    0.302E-01
DAV:   4    -0.312300538709E+02    0.35616E-03   -0.41673E-03 13696   0.998E-01    0.146E-01
DAV:   5    -0.312298819346E+02    0.17194E-03   -0.61126E-04 13808   0.340E-01    0.632E-02
DAV:   6    -0.312299000621E+02   -0.18128E-04   -0.49509E-04 13408   0.404E-01    0.812E-02
DAV:   7    -0.312298514477E+02    0.48614E-04   -0.17932E-04 12928   0.263E-01    0.746E-03
DAV:   8    -0.312298522956E+02   -0.84787E-06   -0.12343E-05 12272   0.274E-02    0.476E-03
DAV:   9    -0.312298522940E+02    0.15607E-08   -0.69121E-07 13712   0.110E-02    0.152E-03
DAV:  10    -0.312298523994E+02   -0.10540E-06   -0.68297E-08 11296   0.245E-03    0.342E-04
DAV:  11    -0.312298524301E+02   -0.30688E-07   -0.78903E-09  6656   0.136E-03    0.136E-04
DAV:  12    -0.312298524445E+02   -0.14386E-07   -0.25142E-09  5840   0.624E-04    0.473E-05
DAV:  13    -0.312298524452E+02   -0.69667E-09   -0.56044E-10  5664   0.251E-04
  26 F= -.31229852E+02 E0= -.31229635E+02  d E =-.762800E-04  mag=    -0.0000
       N       E                     dE             d eps       ncg     rms          rms(c)
DAV:   1    -0.312298703792E+02   -0.17935E-04   -0.61525E-04 12704   0.716E-01    0.624E-02
DAV:   2    -0.312299568100E+02   -0.86431E-04   -0.81997E-04 12560   0.324E-01    0.933E-02
DAV:   3    -0.312298583935E+02    0.98417E-04   -0.33805E-04 12192   0.222E-01    0.269E-02
DAV:   4    -0.312298557984E+02    0.25951E-05   -0.35447E-05 13792   0.870E-02    0.140E-02
DAV:   5    -0.312298539758E+02    0.18227E-05   -0.55595E-06 14080   0.333E-02    0.619E-03
DAV:   6    -0.312298540119E+02   -0.36156E-07   -0.44354E-06 13488   0.391E-02    0.746E-03
DAV:   7    -0.312298534928E+02    0.51912E-06   -0.15330E-06 12976   0.226E-02    0.710E-04
DAV:   8    -0.312298534536E+02    0.39227E-07   -0.10710E-07 12144   0.262E-03    0.437E-04
DAV:   9    -0.312298534428E+02    0.10819E-07   -0.51999E-09  5616   0.103E-03    0.139E-04
DAV:  10    -0.312298534342E+02    0.85420E-08   -0.14929E-09  5472   0.317E-04
  27 F= -.31229853E+02 E0= -.31229636E+02  d E =-.772690E-04  mag=    -0.0000
       N       E                     dE             d eps       ncg     rms          rms(c)
DAV:   1    -0.312277525674E+02    0.21009E-02   -0.57657E-02 14560   0.848E+00    0.166E-01
DAV:   2    -0.312300900775E+02   -0.23375E-02   -0.26039E-02 11392   0.128E+00    0.122E-01
DAV:   3    -0.312300895324E+02    0.54514E-06   -0.15075E-03 14176   0.577E-01    0.123E-01
DAV:   4    -0.312300442981E+02    0.45234E-04   -0.10138E-03 13072   0.477E-01    0.107E-01
DAV:   5    -0.312299543084E+02    0.89990E-04   -0.37565E-04 13184   0.277E-01    0.231E-02
DAV:   6    -0.312299499283E+02    0.43801E-05   -0.36503E-05 13984   0.613E-02    0.758E-03
DAV:   7    -0.312299502160E+02   -0.28776E-06   -0.62542E-06 13584   0.428E-02    0.815E-03
DAV:   8    -0.312299498923E+02    0.32369E-06   -0.18973E-06 12768   0.249E-02    0.235E-03
DAV:   9    -0.312299499470E+02   -0.54659E-07   -0.25477E-07 13264   0.483E-03    0.508E-04
DAV:  10    -0.312299499513E+02   -0.43165E-08   -0.14324E-08  6272   0.183E-03
  28 F= -.31229950E+02 E0= -.31229706E+02  d E =-.965171E-04  mag=    -0.0000
       N       E                     dE             d eps       ncg     rms          rms(c)
DAV:   1    -0.312214063582E+02    0.85436E-02   -0.22583E-01 14544   0.168E+01    0.329E-01
DAV:   2    -0.312305992200E+02   -0.91929E-02   -0.10241E-01 11408   0.253E+00    0.241E-01
DAV:   3    -0.312306180583E+02   -0.18838E-04   -0.59851E-03 14336   0.116E+00    0.249E-01
DAV:   4    -0.312304238779E+02    0.19418E-03   -0.40617E-03 13040   0.938E-01    0.208E-01
DAV:   5    -0.312300790624E+02    0.34482E-03   -0.14201E-03 13072   0.543E-01    0.456E-02
DAV:   6    -0.312300614266E+02    0.17636E-04   -0.14189E-04 13968   0.123E-01    0.164E-02
DAV:   7    -0.312300620801E+02   -0.65350E-06   -0.25445E-05 13584   0.863E-02    0.155E-02
DAV:   8    -0.312300609441E+02    0.11360E-05   -0.68409E-06 12832   0.464E-02    0.468E-03
DAV:   9    -0.312300611534E+02   -0.20928E-06   -0.99453E-07 13664   0.957E-03    0.956E-04
DAV:  10    -0.312300611634E+02   -0.10001E-07   -0.70835E-08 13328   0.353E-03    0.352E-04
DAV:  11    -0.312300611664E+02   -0.30468E-08   -0.56227E-09  6128   0.115E-03
  29 F= -.31230061E+02 E0= -.31229766E+02  d E =-.207732E-03  mag=    -0.0000
       N       E                     dE             d eps       ncg     rms          rms(c)
DAV:   1    -0.311950632360E+02    0.34998E-01   -0.90035E-01 14544   0.335E+01    0.658E-01
DAV:   2    -0.312320251237E+02   -0.36962E-01   -0.41195E-01 11280   0.506E+00    0.476E-01
DAV:   3    -0.312323097313E+02   -0.28461E-03   -0.24751E-02 14928   0.234E+00    0.517E-01
DAV:   4    -0.312313655913E+02    0.94414E-03   -0.16566E-02 13008   0.185E+00    0.402E-01
DAV:   5    -0.312300517875E+02    0.13138E-02   -0.52821E-03 13024   0.105E+00    0.917E-02
DAV:   6    -0.312299773468E+02    0.74441E-04   -0.55338E-04 13888   0.244E-01    0.330E-02
DAV:   7    -0.312299798378E+02   -0.24911E-05   -0.99320E-05 13696   0.168E-01    0.311E-02
DAV:   8    -0.312299751121E+02    0.47258E-05   -0.27690E-05 12912   0.923E-02    0.939E-03
DAV:   9    -0.312299759651E+02   -0.85298E-06   -0.40646E-06 13648   0.190E-02    0.201E-03
DAV:  10    -0.312299759955E+02   -0.30412E-07   -0.29291E-07 15408   0.708E-03    0.734E-04
DAV:  11    -0.312299760008E+02   -0.53406E-08   -0.23868E-08  7696   0.240E-03
  30 F= -.31229976E+02 E0= -.31229597E+02  d E =-.122567E-03  mag=    -0.0000
       N       E                     dE             d eps       ncg     rms          rms(c)
DAV:   1    -0.312133471281E+02    0.16629E-01   -0.44479E-01 14576   0.236E+01    0.455E-01
DAV:   2    -0.312312183940E+02   -0.17871E-01   -0.19835E-01 11408   0.355E+00    0.346E-01
DAV:   3    -0.312311845874E+02    0.33807E-04   -0.11917E-02 14304   0.161E+00    0.344E-01
DAV:   4    -0.312308026536E+02    0.38193E-03   -0.73211E-03 13104   0.136E+00    0.296E-01
DAV:   5    -0.312301216216E+02    0.68103E-03   -0.29278E-03 13184   0.712E-01    0.650E-02
DAV:   6    -0.312300819762E+02    0.39645E-04   -0.27380E-04 13792   0.162E-01    0.145E-02
DAV:   7    -0.312300822773E+02   -0.30110E-06   -0.20690E-05 12912   0.502E-02    0.795E-03
DAV:   8    -0.312300828470E+02   -0.56961E-06   -0.44475E-06 14448   0.369E-02    0.935E-03
DAV:   9    -0.312300825588E+02    0.28815E-06   -0.22075E-06 12784   0.271E-02    0.136E-03
DAV:  10    -0.312300825737E+02   -0.14865E-07   -0.22325E-07 12352   0.334E-03    0.583E-04
DAV:  11    -0.312300825664E+02    0.73233E-08   -0.13601E-08  6512   0.164E-03
  31 F= -.31230083E+02 E0= -.31229758E+02  d E =-.229132E-03  mag=     0.0000
       N       E                     dE             d eps       ncg     rms          rms(c)
DAV:   1    -0.312280355116E+02    0.20471E-02   -0.54239E-02 14416   0.840E+00    0.126E-01
DAV:   2    -0.312301945247E+02   -0.21590E-02   -0.23062E-02 11104   0.114E+00    0.830E-02
DAV:   3    -0.312302215381E+02   -0.27013E-04   -0.94525E-04 14672   0.422E-01    0.828E-02
DAV:   4    -0.312301924878E+02    0.29050E-04   -0.41957E-04 13056   0.332E-01    0.687E-02
DAV:   5    -0.312301632854E+02    0.29202E-04   -0.19717E-04 13072   0.203E-01    0.316E-02
DAV:   6    -0.312301670407E+02   -0.37553E-05   -0.10515E-04 13984   0.172E-01    0.427E-02
DAV:   7    -0.312301541292E+02    0.12911E-04   -0.52205E-05 12640   0.130E-01    0.407E-03
DAV:   8    -0.312301543494E+02   -0.22017E-06   -0.34271E-06 12128   0.134E-02    0.211E-03
DAV:   9    -0.312301543543E+02   -0.49386E-08   -0.15204E-07 15584   0.459E-03    0.870E-04
DAV:  10    -0.312301543719E+02   -0.17633E-07   -0.16413E-08  7072   0.159E-03    0.147E-04
DAV:  11    -0.312301543730E+02   -0.10878E-08   -0.33855E-09  5744   0.734E-04
  32 F= -.31230154E+02 E0= -.31229809E+02  d E =-.718067E-04  mag=     0.0000
       N       E                     dE             d eps       ncg     rms          rms(c)
DAV:   1    -0.312111992930E+02    0.18955E-01   -0.48701E-01 14416   0.252E+01    0.380E-01
DAV:   2    -0.312307136302E+02   -0.19514E-01   -0.20856E-01 11104   0.345E+00    0.246E-01
DAV:   3    -0.312310115474E+02   -0.29792E-03   -0.87336E-03 15040   0.130E+00    0.262E-01
DAV:   4    -0.312307191690E+02    0.29238E-03   -0.41442E-03 13040   0.101E+00    0.204E-01
DAV:   5    -0.312304618964E+02    0.25727E-03   -0.17064E-03 13216   0.596E-01    0.934E-02
DAV:   6    -0.312304881944E+02   -0.26298E-04   -0.88980E-04 13904   0.510E-01    0.124E-01
DAV:   7    -0.312303776178E+02    0.11058E-03   -0.44710E-04 12592   0.388E-01    0.125E-02
DAV:   8    -0.312303794571E+02   -0.18393E-05   -0.30614E-05 12096   0.407E-02    0.626E-03
DAV:   9    -0.312303795202E+02   -0.63092E-07   -0.14246E-06 15376   0.134E-02    0.256E-03
DAV:  10    -0.312303796227E+02   -0.10254E-06   -0.14877E-07 12560   0.447E-03    0.427E-04
DAV:  11    -0.312303796216E+02    0.10714E-08   -0.12184E-08  6800   0.154E-03
  33 F= -.31230380E+02 E0= -.31229983E+02  d E =-.297055E-03  mag=     0.0000
       N       E                     dE             d eps       ncg     rms          rms(c)
DAV:   1    -0.311532272230E+02    0.77152E-01   -0.19401E+00 14416   0.503E+01    0.763E-01
DAV:   2    -0.312318776117E+02   -0.78650E-01   -0.84133E-01 11072   0.695E+00    0.484E-01
DAV:   3    -0.312335276051E+02   -0.16500E-02   -0.37005E-02 15216   0.271E+00    0.573E-01
DAV:   4    -0.312320259047E+02    0.15017E-02   -0.18417E-02 13008   0.202E+00    0.390E-01
DAV:   5    -0.312310797109E+02    0.94619E-03   -0.62080E-03 12944   0.112E+00    0.185E-01
DAV:   6    -0.312311580822E+02   -0.78371E-04   -0.33752E-03 13824   0.104E+00    0.242E-01
DAV:   7    -0.312307372307E+02    0.42085E-03   -0.17044E-03 12576   0.722E-01    0.273E-02
DAV:   8    -0.312307435894E+02   -0.63587E-05   -0.12455E-04 12176   0.853E-02    0.126E-02
DAV:   9    -0.312307439691E+02   -0.37966E-06   -0.62889E-06 14336   0.270E-02    0.520E-03
DAV:  10    -0.312307443274E+02   -0.35828E-06   -0.59416E-07 14032   0.868E-03    0.781E-04
DAV:  11    -0.312307443227E+02    0.46512E-08   -0.52122E-08 11520   0.282E-03
  34 F= -.31230744E+02 E0= -.31230330E+02  d E =-.661756E-03  mag=    -0.0000
       N       E                     dE             d eps       ncg     rms          rms(c)
DAV:   1    -0.309142099329E+02    0.31653E+00   -0.77009E+00 14400   0.100E+02    0.154E+00
DAV:   2    -0.312341756285E+02   -0.31997E+00   -0.34260E+00 11056   0.141E+01    0.951E-01
DAV:   3    -0.312455011598E+02   -0.11326E-01   -0.17475E-01 15824   0.598E+00    0.140E+00
DAV:   4    -0.312350323561E+02    0.10469E-01   -0.88543E-02 12880   0.402E+00    0.654E-01
DAV:   5    -0.312325771808E+02    0.24552E-02   -0.20178E-02 13664   0.194E+00    0.392E-01
DAV:   6    -0.312325124009E+02    0.64780E-04   -0.13571E-02 13040   0.224E+00    0.462E-01
DAV:   7    -0.312309985193E+02    0.15139E-02   -0.60386E-03 12624   0.138E+00    0.555E-02
DAV:   8    -0.312310222760E+02   -0.23757E-04   -0.48485E-04 12128   0.166E-01    0.258E-02
DAV:   9    -0.312310232839E+02   -0.10079E-05   -0.27562E-05 13632   0.591E-02    0.107E-02
DAV:  10    -0.312310247228E+02   -0.14389E-05   -0.25749E-06 13248   0.161E-02    0.155E-03
DAV:  11    -0.312310246944E+02    0.28365E-07   -0.22303E-07 14896   0.571E-03    0.676E-04
DAV:  12    -0.312310246890E+02    0.54461E-08   -0.15020E-08  7584   0.163E-03
  35 F= -.31231025E+02 E0= -.31230877E+02  d E =-.942123E-03  mag=    -0.0000
       N       E                     dE             d eps       ncg     rms          rms(c)
DAV:   1    -0.312042119495E+02    0.26813E-01   -0.69396E-01 14432   0.301E+01    0.443E-01
DAV:   2    -0.312315958952E+02   -0.27384E-01   -0.29178E-01 11136   0.406E+00    0.295E-01
DAV:   3    -0.312318252009E+02   -0.22931E-03   -0.11390E-02 14848   0.139E+00    0.271E-01
DAV:   4    -0.312315332039E+02    0.29200E-03   -0.47682E-03 12960   0.114E+00    0.256E-01
DAV:   5    -0.312311696299E+02    0.36357E-03   -0.28676E-03 12848   0.730E-01    0.120E-01
DAV:   6    -0.312311825883E+02   -0.12958E-04   -0.12693E-03 14352   0.590E-01    0.144E-01
DAV:   7    -0.312310354360E+02    0.14715E-03   -0.59309E-04 12656   0.490E-01    0.145E-02
DAV:   8    -0.312310373151E+02   -0.18790E-05   -0.41567E-05 12192   0.491E-02    0.748E-03
DAV:   9    -0.312310373959E+02   -0.80863E-07   -0.17430E-06 15584   0.155E-02    0.306E-03
DAV:  10    -0.312310374832E+02   -0.87286E-07   -0.24963E-07 12656   0.559E-03    0.505E-04
DAV:  11    -0.312310374755E+02    0.77307E-08   -0.19150E-08  7440   0.195E-03
  36 F= -.31231037E+02 E0= -.31230785E+02  d E =-.954909E-03  mag=    -0.0000
       N       E                     dE             d eps       ncg     rms          rms(c)
DAV:   1    -0.312190239137E+02    0.12014E-01   -0.27688E-01 12992   0.199E+01    0.552E-01
DAV:   2    -0.312371894327E+02   -0.18166E-01   -0.18136E-01 12544   0.368E+00    0.730E-01
DAV:   3    -0.312320251125E+02    0.51643E-02   -0.30699E-02 12112   0.214E+00    0.365E-01
DAV:   4    -0.312314708137E+02    0.55430E-03   -0.47731E-03 12848   0.106E+00    0.179E-01
DAV:   5    -0.312312614019E+02    0.20941E-03   -0.47244E-04 12976   0.302E-01    0.987E-02
DAV:   6    -0.312313105179E+02   -0.49116E-04   -0.71499E-04 13904   0.475E-01    0.140E-01
DAV:   7    -0.312311708838E+02    0.13963E-03   -0.53070E-04 12736   0.468E-01    0.130E-02
DAV:   8    -0.312311729878E+02   -0.21040E-05   -0.43901E-05 12432   0.512E-02    0.773E-03
DAV:   9    -0.312311728396E+02    0.14818E-06   -0.20148E-06 14368   0.169E-02    0.361E-03
DAV:  10    -0.312311728390E+02    0.62391E-09   -0.61065E-07 13008   0.847E-03    0.141E-03
DAV:  11    -0.312311728559E+02   -0.16924E-07   -0.10770E-07 12384   0.440E-03    0.264E-04
DAV:  12    -0.312311728748E+02   -0.18919E-07   -0.74580E-09  6272   0.121E-03    0.105E-04
DAV:  13    -0.312311728780E+02   -0.31796E-08   -0.80401E-10  5824   0.338E-04
  37 F= -.31231173E+02 E0= -.31230962E+02  d E =-.135403E-03  mag=    -0.0000
       N       E                     dE             d eps       ncg     rms          rms(c)
DAV:   1    -0.312199941478E+02    0.11179E-01   -0.25549E-01 12992   0.191E+01    0.530E-01
DAV:   2    -0.312367670081E+02   -0.16773E-01   -0.16738E-01 12544   0.353E+00    0.702E-01
DAV:   3    -0.312319640021E+02    0.48030E-02   -0.28236E-02 12112   0.206E+00    0.346E-01
DAV:   4    -0.312314725729E+02    0.49143E-03   -0.43219E-03 12880   0.101E+00    0.172E-01
DAV:   5    -0.312312791107E+02    0.19346E-03   -0.44309E-04 13008   0.294E-01    0.952E-02
DAV:   6    -0.312313274860E+02   -0.48375E-04   -0.66904E-04 13920   0.459E-01    0.136E-01
DAV:   7    -0.312311952664E+02    0.13222E-03   -0.49417E-04 12784   0.446E-01    0.126E-02
DAV:   8    -0.312311973306E+02   -0.20642E-05   -0.41625E-05 12400   0.499E-02    0.736E-03
DAV:   9    -0.312311971966E+02    0.13399E-06   -0.19437E-06 14160   0.167E-02    0.356E-03
DAV:  10    -0.312311971955E+02    0.10732E-08   -0.60797E-07 12880   0.843E-03    0.143E-03
DAV:  11    -0.312311972082E+02   -0.12693E-07   -0.10972E-07 12400   0.439E-03    0.251E-04
DAV:  12    -0.312311972259E+02   -0.17681E-07   -0.71615E-09  6208   0.116E-03    0.102E-04
DAV:  13    -0.312311972289E+02   -0.30104E-08   -0.76971E-10  5776   0.326E-04
  38 F= -.31231197E+02 E0= -.31231027E+02  d E =-.159753E-03  mag=    -0.0000
       N       E                     dE             d eps       ncg     rms          rms(c)
DAV:   1    -0.312126561077E+02    0.18541E-01   -0.47288E-01 14176   0.254E+01    0.238E-01
DAV:   2    -0.312312609223E+02   -0.18605E-01   -0.18840E-01 10912   0.306E+00    0.199E-01
DAV:   3    -0.312315661297E+02   -0.30521E-03   -0.73692E-03 14944   0.112E+00    0.195E-01
DAV:   4    -0.312313784965E+02    0.18763E-03   -0.14717E-03 12448   0.602E-01    0.984E-02
DAV:   5    -0.312313286784E+02    0.49818E-04   -0.22211E-04 15264   0.218E-01    0.633E-02
DAV:   6    -0.312313391758E+02   -0.10497E-04   -0.21937E-04 13408   0.273E-01    0.796E-02
DAV:   7    -0.312312866195E+02    0.52556E-04   -0.16382E-04 14800   0.251E-01    0.987E-03
DAV:   8    -0.312312872549E+02   -0.63541E-06   -0.19801E-05 13360   0.348E-02    0.306E-03
DAV:   9    -0.312312872570E+02   -0.20918E-08   -0.74200E-07 13792   0.135E-02    0.173E-03
DAV:  10    -0.312312872569E+02    0.47294E-10   -0.80843E-08 12288   0.309E-03
  39 F= -.31231287E+02 E0= -.31231156E+02  d E =-.900280E-04  mag=     0.0000
       N       E                     dE             d eps       ncg     rms          rms(c)
DAV:   1    -0.312303967151E+02    0.89054E-03   -0.22789E-02 14192   0.557E+00    0.517E-02
DAV:   2    -0.312312903084E+02   -0.89359E-03   -0.90427E-03 10912   0.670E-01    0.423E-02
DAV:   3    -0.312313046815E+02   -0.14373E-04   -0.34123E-04 14048   0.239E-01    0.414E-02
DAV:   4    -0.312312960080E+02    0.86735E-05   -0.64534E-05 12480   0.129E-01    0.211E-02
DAV:   5    -0.312312937931E+02    0.22149E-05   -0.97106E-06 15056   0.464E-02    0.139E-02
DAV:   6    -0.312312943178E+02   -0.52470E-06   -0.10905E-05 13504   0.601E-02    0.179E-02
DAV:   7    -0.312312915902E+02    0.27275E-05   -0.82579E-06 14912   0.561E-02    0.212E-03
DAV:   8    -0.312312916019E+02   -0.11636E-07   -0.97071E-07 13248   0.763E-03    0.695E-04
DAV:   9    -0.312312916021E+02   -0.24738E-09   -0.28901E-08  8384   0.279E-03
  40 F= -.31231292E+02 E0= -.31231169E+02  d E =-.943732E-04  mag=     0.0000
       N       E                     dE             d eps       ncg     rms          rms(c)
DAV:   1    -0.312332975968E+02   -0.20060E-02   -0.28674E-02 12688   0.398E+00    0.519E-01
DAV:   2    -0.312392424824E+02   -0.59449E-02   -0.54223E-02 12528   0.263E+00    0.834E-01
DAV:   3    -0.312316782875E+02    0.75642E-02   -0.26212E-02 12208   0.197E+00    0.251E-01
DAV:   4    -0.312314200793E+02    0.25821E-03   -0.29020E-03 13200   0.755E-01    0.920E-02
DAV:   5    -0.312313807467E+02    0.39333E-04   -0.41015E-04 15168   0.299E-01    0.804E-02
DAV:   6    -0.312313382114E+02    0.42535E-04   -0.26391E-04 13184   0.304E-01    0.232E-02
DAV:   7    -0.312313339961E+02    0.42153E-05   -0.21981E-05 14896   0.654E-02    0.548E-03
DAV:   8    -0.312313334565E+02    0.53957E-06   -0.20440E-06 13488   0.134E-02    0.203E-03
DAV:   9    -0.312313333463E+02    0.11020E-06   -0.24189E-07 12352   0.650E-03    0.656E-04
DAV:  10    -0.312313332900E+02    0.56349E-07   -0.17443E-08  7088   0.197E-03    0.237E-04
DAV:  11    -0.312313332715E+02    0.18432E-07   -0.39897E-09  5824   0.911E-04    0.603E-05
DAV:  12    -0.312313332671E+02    0.43783E-08   -0.13325E-09  5712   0.375E-04
  41 F= -.31231333E+02 E0= -.31231190E+02  d E =-.416650E-04  mag=     0.0000
