   2   2   0   0
  0.1193215E+02  0.2800269E-09  0.2800269E-09  0.3043332E-09  0.5000000E-15
  1.000000000000000E-004
  CAR 
 unknown system                          
     33.94744904    -58.50325120  301      9.42068269      1.00000000
    -58.503  0.0000E+00  0.0000E+00  0.0000E+00  0.0000E+00
    -58.195  0.0000E+00  0.0000E+00  0.0000E+00  0.0000E+00
    -57.887  0.0000E+00  0.0000E+00  0.0000E+00  0.0000E+00
    -57.579  0.0000E+00  0.0000E+00  0.0000E+00  0.0000E+00
    -57.271  0.0000E+00  0.0000E+00  0.0000E+00  0.0000E+00
    -56.962  0.0000E+00  0.0000E+00  0.0000E+00  0.0000E+00
    -56.654  0.0000E+00  0.0000E+00  0.0000E+00  0.0000E+00
    -56.346  0.0000E+00  0.0000E+00  0.0000E+00  0.0000E+00
    -56.038  0.0000E+00  0.0000E+00  0.0000E+00  0.0000E+00
    -55.730  0.0000E+00  0.0000E+00  0.0000E+00  0.0000E+00
    -55.422  0.0000E+00  0.0000E+00  0.0000E+00  0.0000E+00
    -55.113  0.0000E+00  0.0000E+00  0.0000E+00  0.0000E+00
    -54.805  0.0000E+00  0.0000E+00  0.0000E+00  0.0000E+00
    -54.497  0.0000E+00  0.0000E+00  0.0000E+00  0.0000E+00
    -54.189  0.0000E+00  0.0000E+00  0.3000E+01  0.3000E+01
    -53.881  0.0000E+00  0.0000E+00  0.3000E+01  0.3000E+01
    -53.573  0.0000E+00  0.0000E+00  0.3000E+01  0.3000E+01
    -53.264  0.0000E+00  0.0000E+00  0.3000E+01  0.3000E+01
    -52.956  0.0000E+00  0.0000E+00  0.3000E+01  0.3000E+01
    -52.648  0.0000E+00  0.0000E+00  0.3000E+01  0.3000E+01
    -52.340  0.0000E+00  0.0000E+00  0.3000E+01  0.3000E+01
    -52.032  0.0000E+00  0.0000E+00  0.3000E+01  0.3000E+01
    -51.724  0.0000E+00  0.0000E+00  0.3000E+01  0.3000E+01
    -51.415  0.0000E+00  0.0000E+00  0.3000E+01  0.3000E+01
    -51.107  0.0000E+00  0.0000E+00  0.3000E+01  0.3000E+01
    -50.799  0.0000E+00  0.0000E+00  0.3000E+01  0.3000E+01
    -50.491  0.0000E+00  0.0000E+00  0.3000E+01  0.3000E+01
    -50.183  0.0000E+00  0.0000E+00  0.3000E+01  0.3000E+01
    -49.875  0.0000E+00  0.0000E+00  0.3000E+01  0.3000E+01
    -49.566  0.0000E+00  0.0000E+00  0.3000E+01  0.3000E+01
    -49.258  0.0000E+00  0.0000E+00  0.3000E+01  0.3000E+01
    -48.950  0.0000E+00  0.0000E+00  0.3000E+01  0.3000E+01
    -48.642  0.0000E+00  0.0000E+00  0.3000E+01  0.3000E+01
    -48.334  0.0000E+00  0.0000E+00  0.3000E+01  0.3000E+01
    -48.026  0.0000E+00  0.0000E+00  0.3000E+01  0.3000E+01
    -47.717  0.0000E+00  0.0000E+00  0.3000E+01  0.3000E+01
    -47.409  0.0000E+00  0.0000E+00  0.3000E+01  0.3000E+01
    -47.101  0.0000E+00  0.0000E+00  0.3000E+01  0.3000E+01
    -46.793  0.0000E+00  0.0000E+00  0.3000E+01  0.3000E+01
    -46.485  0.0000E+00  0.0000E+00  0.3000E+01  0.3000E+01
    -46.176  0.0000E+00  0.0000E+00  0.3000E+01  0.3000E+01
    -45.868  0.0000E+00  0.0000E+00  0.3000E+01  0.3000E+01
    -45.560  0.0000E+00  0.0000E+00  0.3000E+01  0.3000E+01
    -45.252  0.0000E+00  0.0000E+00  0.3000E+01  0.3000E+01
    -44.944  0.0000E+00  0.0000E+00  0.3000E+01  0.3000E+01
    -44.636  0.0000E+00  0.0000E+00  0.3000E+01  0.3000E+01
    -44.327  0.0000E+00  0.0000E+00  0.3000E+01  0.3000E+01
    -44.019  0.0000E+00  0.0000E+00  0.3000E+01  0.3000E+01
    -43.711  0.0000E+00  0.0000E+00  0.3000E+01  0.3000E+01
    -43.403  0.0000E+00  0.0000E+00  0.3000E+01  0.3000E+01
    -43.095  0.0000E+00  0.0000E+00  0.3000E+01  0.3000E+01
    -42.787  0.0000E+00  0.0000E+00  0.3000E+01  0.3000E+01
    -42.478  0.0000E+00  0.0000E+00  0.3000E+01  0.3000E+01
    -42.170  0.0000E+00  0.0000E+00  0.3000E+01  0.3000E+01
    -41.862  0.0000E+00  0.0000E+00  0.3000E+01  0.3000E+01
    -41.554  0.0000E+00  0.0000E+00  0.3000E+01  0.3000E+01
    -41.246  0.0000E+00  0.0000E+00  0.3000E+01  0.3000E+01
    -40.938  0.0000E+00  0.0000E+00  0.3000E+01  0.3000E+01
    -40.629  0.0000E+00  0.0000E+00  0.3000E+01  0.3000E+01
    -40.321  0.0000E+00  0.0000E+00  0.3000E+01  0.3000E+01
    -40.013  0.0000E+00  0.0000E+00  0.3000E+01  0.3000E+01
    -39.705  0.0000E+00  0.0000E+00  0.3000E+01  0.3000E+01
    -39.397  0.0000E+00  0.0000E+00  0.3000E+01  0.3000E+01
    -39.089  0.0000E+00  0.0000E+00  0.3000E+01  0.3000E+01
    -38.780  0.0000E+00  0.0000E+00  0.3000E+01  0.3000E+01
    -38.472  0.0000E+00  0.0000E+00  0.3000E+01  0.3000E+01
    -38.164  0.0000E+00  0.0000E+00  0.3000E+01  0.3000E+01
    -37.856  0.0000E+00  0.0000E+00  0.3000E+01  0.3000E+01
    -37.548  0.0000E+00  0.0000E+00  0.3000E+01  0.3000E+01
    -37.240  0.0000E+00  0.0000E+00  0.3000E+01  0.3000E+01
    -36.931  0.0000E+00  0.0000E+00  0.3000E+01  0.3000E+01
    -36.623  0.0000E+00  0.0000E+00  0.3000E+01  0.3000E+01
    -36.315  0.0000E+00  0.0000E+00  0.3000E+01  0.3000E+01
    -36.007  0.0000E+00  0.0000E+00  0.3000E+01  0.3000E+01
    -35.699  0.0000E+00  0.0000E+00  0.3000E+01  0.3000E+01
    -35.391  0.0000E+00  0.0000E+00  0.3000E+01  0.3000E+01
    -35.082  0.0000E+00  0.0000E+00  0.3000E+01  0.3000E+01
    -34.774  0.0000E+00  0.0000E+00  0.3000E+01  0.3000E+01
    -34.466  0.0000E+00  0.0000E+00  0.3000E+01  0.3000E+01
    -34.158  0.0000E+00  0.0000E+00  0.3000E+01  0.3000E+01
    -33.850  0.0000E+00  0.0000E+00  0.3000E+01  0.3000E+01
    -33.542  0.0000E+00  0.0000E+00  0.3000E+01  0.3000E+01
    -33.233  0.0000E+00  0.0000E+00  0.3000E+01  0.3000E+01
    -32.925  0.0000E+00  0.0000E+00  0.3000E+01  0.3000E+01
    -32.617  0.0000E+00  0.0000E+00  0.3000E+01  0.3000E+01
    -32.309  0.0000E+00  0.0000E+00  0.3000E+01  0.3000E+01
    -32.001  0.0000E+00  0.0000E+00  0.3000E+01  0.3000E+01
    -31.693  0.0000E+00  0.0000E+00  0.3000E+01  0.3000E+01
    -31.384  0.0000E+00  0.0000E+00  0.3000E+01  0.3000E+01
    -31.076  0.0000E+00  0.0000E+00  0.3000E+01  0.3000E+01
    -30.768  0.0000E+00  0.0000E+00  0.3000E+01  0.3000E+01
    -30.460  0.0000E+00  0.0000E+00  0.3000E+01  0.3000E+01
    -30.152  0.0000E+00  0.0000E+00  0.3000E+01  0.3000E+01
    -29.844  0.0000E+00  0.0000E+00  0.3000E+01  0.3000E+01
    -29.535  0.0000E+00  0.0000E+00  0.3000E+01  0.3000E+01
    -29.227  0.0000E+00  0.0000E+00  0.3000E+01  0.3000E+01
    -28.919  0.0000E+00  0.0000E+00  0.3000E+01  0.3000E+01
    -28.611  0.0000E+00  0.0000E+00  0.3000E+01  0.3000E+01
    -28.303  0.0000E+00  0.0000E+00  0.3000E+01  0.3000E+01
    -27.995  0.0000E+00  0.0000E+00  0.3000E+01  0.3000E+01
    -27.686  0.0000E+00  0.0000E+00  0.3000E+01  0.3000E+01
    -27.378  0.0000E+00  0.0000E+00  0.3000E+01  0.3000E+01
    -27.070  0.0000E+00  0.0000E+00  0.3000E+01  0.3000E+01
    -26.762  0.0000E+00  0.0000E+00  0.3000E+01  0.3000E+01
    -26.454  0.0000E+00  0.0000E+00  0.3000E+01  0.3000E+01
    -26.146  0.0000E+00  0.0000E+00  0.3000E+01  0.3000E+01
    -25.837  0.0000E+00  0.0000E+00  0.3000E+01  0.3000E+01
    -25.529  0.0000E+00  0.0000E+00  0.3000E+01  0.3000E+01
    -25.221  0.0000E+00  0.0000E+00  0.3000E+01  0.3000E+01
    -24.913  0.0000E+00  0.0000E+00  0.3000E+01  0.3000E+01
    -24.605  0.0000E+00  0.0000E+00  0.3000E+01  0.3000E+01
    -24.296  0.0000E+00  0.0000E+00  0.3000E+01  0.3000E+01
    -23.988  0.0000E+00  0.0000E+00  0.3000E+01  0.3000E+01
    -23.680  0.0000E+00  0.0000E+00  0.3000E+01  0.3000E+01
    -23.372  0.0000E+00  0.0000E+00  0.3000E+01  0.3000E+01
    -23.064  0.0000E+00  0.0000E+00  0.3000E+01  0.3000E+01
    -22.756  0.0000E+00  0.0000E+00  0.3000E+01  0.3000E+01
    -22.447  0.0000E+00  0.0000E+00  0.3000E+01  0.3000E+01
    -22.139  0.0000E+00  0.0000E+00  0.3000E+01  0.3000E+01
    -21.831  0.0000E+00  0.0000E+00  0.3000E+01  0.3000E+01
    -21.523  0.0000E+00  0.0000E+00  0.3000E+01  0.3000E+01
    -21.215  0.0000E+00  0.0000E+00  0.3000E+01  0.3000E+01
    -20.907  0.0000E+00  0.0000E+00  0.3000E+01  0.3000E+01
    -20.598  0.0000E+00  0.0000E+00  0.3000E+01  0.3000E+01
    -20.290  0.0000E+00  0.0000E+00  0.3000E+01  0.3000E+01
    -19.982  0.0000E+00  0.0000E+00  0.3000E+01  0.3000E+01
    -19.674  0.0000E+00  0.0000E+00  0.3000E+01  0.3000E+01
    -19.366  0.0000E+00  0.0000E+00  0.3000E+01  0.3000E+01
    -19.058  0.0000E+00  0.0000E+00  0.3000E+01  0.3000E+01
    -18.749  0.0000E+00  0.0000E+00  0.3000E+01  0.3000E+01
    -18.441  0.0000E+00  0.0000E+00  0.3000E+01  0.3000E+01
    -18.133  0.0000E+00  0.0000E+00  0.3000E+01  0.3000E+01
    -17.825  0.0000E+00  0.0000E+00  0.3000E+01  0.3000E+01
    -17.517  0.0000E+00  0.0000E+00  0.3000E+01  0.3000E+01
    -17.209  0.0000E+00  0.0000E+00  0.3000E+01  0.3000E+01
    -16.900  0.0000E+00  0.0000E+00  0.3000E+01  0.3000E+01
    -16.592  0.0000E+00  0.0000E+00  0.3000E+01  0.3000E+01
    -16.284  0.0000E+00  0.0000E+00  0.3000E+01  0.3000E+01
    -15.976  0.0000E+00  0.0000E+00  0.3000E+01  0.3000E+01
    -15.668  0.0000E+00  0.0000E+00  0.3000E+01  0.3000E+01
    -15.360  0.0000E+00  0.0000E+00  0.3000E+01  0.3000E+01
    -15.051  0.0000E+00  0.0000E+00  0.3000E+01  0.3000E+01
    -14.743  0.0000E+00  0.0000E+00  0.3000E+01  0.3000E+01
    -14.435  0.0000E+00  0.0000E+00  0.3000E+01  0.3000E+01
    -14.127  0.0000E+00  0.0000E+00  0.3000E+01  0.3000E+01
    -13.819  0.0000E+00  0.0000E+00  0.3000E+01  0.3000E+01
    -13.511  0.0000E+00  0.0000E+00  0.3000E+01  0.3000E+01
    -13.202  0.0000E+00  0.0000E+00  0.3000E+01  0.3000E+01
    -12.894  0.0000E+00  0.0000E+00  0.3000E+01  0.3000E+01
    -12.586  0.0000E+00  0.0000E+00  0.3000E+01  0.3000E+01
    -12.278  0.0000E+00  0.0000E+00  0.3000E+01  0.3000E+01
    -11.970  0.0000E+00  0.0000E+00  0.3000E+01  0.3000E+01
    -11.662  0.0000E+00  0.0000E+00  0.3000E+01  0.3000E+01
    -11.353  0.0000E+00  0.0000E+00  0.3000E+01  0.3000E+01
    -11.045  0.0000E+00  0.0000E+00  0.3000E+01  0.3000E+01
    -10.737  0.0000E+00  0.0000E+00  0.3000E+01  0.3000E+01
    -10.429  0.0000E+00  0.0000E+00  0.3000E+01  0.3000E+01
    -10.121  0.0000E+00  0.0000E+00  0.3000E+01  0.3000E+01
     -9.813  0.0000E+00  0.0000E+00  0.3000E+01  0.3000E+01
     -9.504  0.0000E+00  0.0000E+00  0.3000E+01  0.3000E+01
     -9.196  0.0000E+00  0.0000E+00  0.3000E+01  0.3000E+01
     -8.888  0.0000E+00  0.0000E+00  0.3000E+01  0.3000E+01
     -8.580  0.0000E+00  0.0000E+00  0.3000E+01  0.3000E+01
     -8.272  0.0000E+00  0.0000E+00  0.3000E+01  0.3000E+01
     -7.964  0.0000E+00  0.0000E+00  0.3000E+01  0.3000E+01
     -7.655  0.0000E+00  0.0000E+00  0.3000E+01  0.3000E+01
     -7.347  0.0000E+00  0.0000E+00  0.3000E+01  0.3000E+01
     -7.039  0.0000E+00  0.0000E+00  0.3000E+01  0.3000E+01
     -6.731  0.0000E+00  0.0000E+00  0.3000E+01  0.3000E+01
     -6.423  0.0000E+00  0.0000E+00  0.3000E+01  0.3000E+01
     -6.115  0.0000E+00  0.0000E+00  0.3000E+01  0.3000E+01
     -5.806  0.0000E+00  0.0000E+00  0.3000E+01  0.3000E+01
     -5.498  0.0000E+00  0.0000E+00  0.3000E+01  0.3000E+01
     -5.190  0.0000E+00  0.0000E+00  0.3000E+01  0.3000E+01
     -4.882  0.0000E+00  0.0000E+00  0.3000E+01  0.3000E+01
     -4.574  0.0000E+00  0.0000E+00  0.3000E+01  0.3000E+01
     -4.266  0.0000E+00  0.0000E+00  0.3000E+01  0.3000E+01
     -3.957  0.0000E+00  0.0000E+00  0.3000E+01  0.3000E+01
     -3.649  0.0000E+00  0.0000E+00  0.3000E+01  0.3000E+01
     -3.341  0.0000E+00  0.0000E+00  0.3000E+01  0.3000E+01
     -3.033  0.0000E+00  0.0000E+00  0.3000E+01  0.3000E+01
     -2.725  0.0000E+00  0.0000E+00  0.3000E+01  0.3000E+01
     -2.416  0.0000E+00  0.0000E+00  0.3000E+01  0.3000E+01
     -2.108  0.0000E+00  0.0000E+00  0.3000E+01  0.3000E+01
     -1.800  0.3830E-04  0.3830E-04  0.3000E+01  0.3000E+01
     -1.492  0.3421E-01  0.3421E-01  0.3004E+01  0.3004E+01
     -1.184  0.5540E-01  0.5540E-01  0.3019E+01  0.3019E+01
     -0.876  0.7318E-01  0.7318E-01  0.3038E+01  0.3038E+01
     -0.567  0.8927E-01  0.8927E-01  0.3064E+01  0.3064E+01
     -0.259  0.1006E+00  0.1006E+00  0.3093E+01  0.3093E+01
      0.049  0.1127E+00  0.1127E+00  0.3126E+01  0.3126E+01
      0.357  0.1261E+00  0.1261E+00  0.3163E+01  0.3163E+01
      0.665  0.1370E+00  0.1370E+00  0.3203E+01  0.3203E+01
      0.973  0.1497E+00  0.1497E+00  0.3247E+01  0.3247E+01
      1.282  0.1928E+00  0.1928E+00  0.3299E+01  0.3299E+01
      1.590  0.1892E+00  0.1892E+00  0.3357E+01  0.3357E+01
      1.898  0.2186E+00  0.2186E+00  0.3418E+01  0.3418E+01
      2.206  0.2390E+00  0.2390E+00  0.3492E+01  0.3492E+01
      2.514  0.2309E+00  0.2309E+00  0.3563E+01  0.3563E+01
      2.822  0.2257E+00  0.2257E+00  0.3634E+01  0.3634E+01
      3.131  0.2246E+00  0.2246E+00  0.3703E+01  0.3703E+01
      3.439  0.2550E+00  0.2550E+00  0.3778E+01  0.3778E+01
      3.747  0.3452E+00  0.3452E+00  0.3865E+01  0.3865E+01
      4.055  0.3094E+00  0.3094E+00  0.3964E+01  0.3964E+01
      4.363  0.3233E+00  0.3233E+00  0.4065E+01  0.4065E+01
      4.671  0.3647E+00  0.3647E+00  0.4168E+01  0.4168E+01
      4.980  0.4332E+00  0.4332E+00  0.4291E+01  0.4291E+01
      5.288  0.6117E+00  0.6117E+00  0.4446E+01  0.4446E+01
      5.596  0.8157E+00  0.8157E+00  0.4764E+01  0.4764E+01
      5.904  0.7076E+00  0.7076E+00  0.5005E+01  0.5005E+01
      6.212  0.1517E+01  0.1517E+01  0.5304E+01  0.5304E+01
      6.520  0.1374E+01  0.1374E+01  0.5829E+01  0.5829E+01
      6.829  0.1399E+01  0.1399E+01  0.6114E+01  0.6114E+01
      7.137  0.1406E+01  0.1406E+01  0.6728E+01  0.6728E+01
      7.445  0.4184E+01  0.4184E+01  0.7517E+01  0.7517E+01
      7.753  0.2163E+01  0.2163E+01  0.8516E+01  0.8516E+01
      8.061  0.3882E+00  0.3882E+00  0.8843E+01  0.8843E+01
      8.369  0.1333E+00  0.1333E+00  0.8926E+01  0.8926E+01
      8.678  0.4127E+00  0.4127E+00  0.9066E+01  0.9066E+01
      8.986  0.1007E+01  0.1007E+01  0.9241E+01  0.9241E+01
      9.294  0.5142E+00  0.5142E+00  0.9437E+01  0.9437E+01
      9.602  0.4498E+00  0.4498E+00  0.9586E+01  0.9586E+01
      9.910  0.3175E+00  0.3175E+00  0.9703E+01  0.9703E+01
     10.218  0.2311E+00  0.2311E+00  0.9788E+01  0.9788E+01
     10.527  0.1635E+00  0.1635E+00  0.9848E+01  0.9848E+01
     10.835  0.1196E+00  0.1196E+00  0.9892E+01  0.9892E+01
     11.143  0.1695E+00  0.1695E+00  0.9938E+01  0.9938E+01
     11.451  0.3090E+00  0.3090E+00  0.1001E+02  0.1001E+02
     11.759  0.3372E+00  0.3372E+00  0.1010E+02  0.1010E+02
     12.067  0.4468E+00  0.4468E+00  0.1021E+02  0.1021E+02
     12.376  0.4190E+00  0.4190E+00  0.1034E+02  0.1034E+02
     12.684  0.4463E+00  0.4463E+00  0.1048E+02  0.1048E+02
     12.992  0.5326E+00  0.5326E+00  0.1062E+02  0.1062E+02
     13.300  0.4046E+00  0.4046E+00  0.1076E+02  0.1076E+02
     13.608  0.3632E+00  0.3632E+00  0.1087E+02  0.1087E+02
     13.916  0.3762E+00  0.3762E+00  0.1099E+02  0.1099E+02
     14.225  0.3895E+00  0.3895E+00  0.1111E+02  0.1111E+02
     14.533  0.4185E+00  0.4185E+00  0.1124E+02  0.1124E+02
     14.841  0.4157E+00  0.4157E+00  0.1137E+02  0.1137E+02
     15.149  0.3920E+00  0.3920E+00  0.1149E+02  0.1149E+02
     15.457  0.3828E+00  0.3828E+00  0.1161E+02  0.1161E+02
     15.765  0.3942E+00  0.3942E+00  0.1173E+02  0.1173E+02
     16.074  0.4782E+00  0.4782E+00  0.1186E+02  0.1186E+02
     16.382  0.4342E+00  0.4342E+00  0.1200E+02  0.1200E+02
     16.690  0.3995E+00  0.3995E+00  0.1213E+02  0.1213E+02
     16.998  0.3617E+00  0.3617E+00  0.1225E+02  0.1225E+02
     17.306  0.3499E+00  0.3499E+00  0.1236E+02  0.1236E+02
     17.614  0.3368E+00  0.3368E+00  0.1246E+02  0.1246E+02
     17.923  0.3824E+00  0.3824E+00  0.1257E+02  0.1257E+02
     18.231  0.4650E+00  0.4650E+00  0.1270E+02  0.1270E+02
     18.539  0.4896E+00  0.4896E+00  0.1285E+02  0.1285E+02
     18.847  0.4604E+00  0.4604E+00  0.1300E+02  0.1300E+02
     19.155  0.4390E+00  0.4390E+00  0.1314E+02  0.1314E+02
     19.464  0.4108E+00  0.4108E+00  0.1328E+02  0.1328E+02
     19.772  0.4085E+00  0.4085E+00  0.1339E+02  0.1339E+02
     20.080  0.3767E+00  0.3767E+00  0.1352E+02  0.1352E+02
     20.388  0.3628E+00  0.3628E+00  0.1363E+02  0.1363E+02
     20.696  0.3615E+00  0.3615E+00  0.1374E+02  0.1374E+02
     21.004  0.4076E+00  0.4076E+00  0.1386E+02  0.1386E+02
     21.313  0.4611E+00  0.4611E+00  0.1399E+02  0.1399E+02
     21.621  0.5091E+00  0.5091E+00  0.1414E+02  0.1414E+02
     21.929  0.4690E+00  0.4690E+00  0.1429E+02  0.1429E+02
     22.237  0.3850E+00  0.3850E+00  0.1443E+02  0.1443E+02
     22.545  0.3265E+00  0.3265E+00  0.1453E+02  0.1453E+02
     22.853  0.3527E+00  0.3527E+00  0.1464E+02  0.1464E+02
     23.162  0.3755E+00  0.3755E+00  0.1475E+02  0.1475E+02
     23.470  0.6116E+00  0.6116E+00  0.1488E+02  0.1488E+02
     23.778  0.4975E+00  0.4975E+00  0.1504E+02  0.1504E+02
     24.086  0.4487E+00  0.4487E+00  0.1519E+02  0.1519E+02
     24.394  0.4110E+00  0.4110E+00  0.1532E+02  0.1532E+02
     24.702  0.4395E+00  0.4395E+00  0.1545E+02  0.1545E+02
     25.011  0.4221E+00  0.4221E+00  0.1559E+02  0.1559E+02
     25.319  0.3653E+00  0.3653E+00  0.1571E+02  0.1571E+02
     25.627  0.3860E+00  0.3860E+00  0.1583E+02  0.1583E+02
     25.935  0.1966E+00  0.1966E+00  0.1592E+02  0.1592E+02
     26.243  0.7194E-01  0.7194E-01  0.1595E+02  0.1595E+02
     26.551  0.4663E-01  0.4663E-01  0.1597E+02  0.1597E+02
     26.860  0.3060E-01  0.3060E-01  0.1598E+02  0.1598E+02
     27.168  0.2157E-01  0.2157E-01  0.1599E+02  0.1599E+02
     27.476  0.7053E-02  0.7053E-02  0.1600E+02  0.1600E+02
     27.784  0.3102E-02  0.3102E-02  0.1600E+02  0.1600E+02
     28.092  0.2203E-02  0.2203E-02  0.1600E+02  0.1600E+02
     28.400  0.1458E-02  0.1458E-02  0.1600E+02  0.1600E+02
     28.709  0.8666E-03  0.8666E-03  0.1600E+02  0.1600E+02
     29.017  0.4279E-03  0.4279E-03  0.1600E+02  0.1600E+02
     29.325  0.1424E-03  0.1424E-03  0.1600E+02  0.1600E+02
     29.633  0.1013E-04  0.1013E-04  0.1600E+02  0.1600E+02
     29.941  0.0000E+00  0.0000E+00  0.1600E+02  0.1600E+02
     30.249  0.0000E+00  0.0000E+00  0.1600E+02  0.1600E+02
     30.558  0.0000E+00  0.0000E+00  0.1600E+02  0.1600E+02
     30.866  0.0000E+00  0.0000E+00  0.1600E+02  0.1600E+02
     31.174  0.0000E+00  0.0000E+00  0.1600E+02  0.1600E+02
     31.482  0.0000E+00  0.0000E+00  0.1600E+02  0.1600E+02
     31.790  0.0000E+00  0.0000E+00  0.1600E+02  0.1600E+02
     32.098  0.0000E+00  0.0000E+00  0.1600E+02  0.1600E+02
     32.407  0.0000E+00  0.0000E+00  0.1600E+02  0.1600E+02
     32.715  0.0000E+00  0.0000E+00  0.1600E+02  0.1600E+02
     33.023  0.0000E+00  0.0000E+00  0.1600E+02  0.1600E+02
     33.331  0.0000E+00  0.0000E+00  0.1600E+02  0.1600E+02
     33.639  0.0000E+00  0.0000E+00  0.1600E+02  0.1600E+02
     33.947  0.0000E+00  0.0000E+00  0.1600E+02  0.1600E+02
