       N       E                     dE             d eps       ncg     rms          rms(c)
DAV:   1     0.112153139518E+03    0.11215E+03   -0.11574E+04  4512   0.124E+03
DAV:   2    -0.948211530323E+01   -0.12164E+03   -0.11626E+03  4128   0.337E+02
DAV:   3    -0.117145104949E+02   -0.22324E+01   -0.22254E+01  4920   0.535E+01
DAV:   4    -0.117460701790E+02   -0.31560E-01   -0.31558E-01  4496   0.601E+00
DAV:   5    -0.117470086245E+02   -0.93845E-03   -0.93844E-03  4880   0.102E+00    0.147E+01
DAV:   6    -0.149906091223E+02   -0.32436E+01   -0.28702E+01  4296   0.103E+02    0.179E+01
DAV:   7    -0.103867609129E+02    0.46038E+01   -0.94597E+00  4552   0.648E+01    0.127E+00
DAV:   8    -0.103748665097E+02    0.11894E-01   -0.26238E-01  4976   0.571E+00    0.892E-01
DAV:   9    -0.103649875948E+02    0.98789E-02   -0.37021E-02  4656   0.331E+00    0.427E-01
DAV:  10    -0.103633276130E+02    0.16600E-02   -0.48707E-03  5088   0.134E+00    0.618E-02
DAV:  11    -0.103633579152E+02   -0.30302E-04   -0.23751E-04  5104   0.199E-01    0.611E-02
DAV:  12    -0.103633119994E+02    0.45916E-04   -0.97403E-05  4976   0.161E-01    0.642E-03
DAV:  13    -0.103633113452E+02    0.65418E-06   -0.51833E-06  4104   0.209E-02    0.314E-03
DAV:  14    -0.103633108603E+02    0.48491E-06   -0.42480E-07  5248   0.639E-03    0.159E-03
DAV:  15    -0.103633107199E+02    0.14038E-06   -0.66410E-08  4296   0.288E-03    0.601E-04
DAV:  16    -0.103633107315E+02   -0.11602E-07   -0.21293E-09  2424   0.517E-04    0.462E-04
DAV:  17    -0.103633107404E+02   -0.88967E-08   -0.12209E-09  2240   0.475E-04
   1 F= -.10363311E+02 E0= -.10363038E+02  d E =-.103633E+02  mag=     0.0000
       N       E                     dE             d eps       ncg     rms          rms(c)
DAV:   1    -0.461332454912E+02   -0.35770E+02   -0.39523E+02  3840   0.397E+02    0.463E+01
DAV:   2    -0.256538353377E+02    0.20479E+02   -0.19991E+02  4880   0.195E+02    0.344E+01
DAV:   3    -0.154056014736E+02    0.10248E+02   -0.82755E+01  3920   0.140E+02    0.201E+01
DAV:   4    -0.108608232798E+02    0.45448E+01   -0.14068E+01  4208   0.712E+01    0.343E+00
DAV:   5    -0.107187997570E+02    0.14202E+00   -0.18247E+00  4016   0.232E+01    0.457E+00
DAV:   6    -0.105172454817E+02    0.20155E+00   -0.37505E-01  4632   0.105E+01    0.606E-01
DAV:   7    -0.105162193101E+02    0.10262E-02   -0.10107E-02  4016   0.788E-01    0.616E-01
DAV:   8    -0.105124031638E+02    0.38161E-02   -0.11202E-02  4752   0.177E+00    0.816E-02
DAV:   9    -0.105123030135E+02    0.10015E-03   -0.60779E-04  4992   0.334E-01    0.694E-02
DAV:  10    -0.105122721330E+02    0.30880E-04   -0.86172E-05  4640   0.155E-01    0.940E-03
DAV:  11    -0.105122732876E+02   -0.11546E-05   -0.52041E-06  4384   0.231E-02    0.472E-03
DAV:  12    -0.105122731018E+02    0.18581E-06   -0.45201E-07  5240   0.933E-03    0.122E-03
DAV:  13    -0.105122730537E+02    0.48120E-07   -0.82960E-08  5304   0.425E-03    0.788E-04
DAV:  14    -0.105122730504E+02    0.32569E-08   -0.52352E-09  2088   0.105E-03
   2 F= -.10512273E+02 E0= -.10512258E+02  d E =-.148962E+00  mag=    -0.0001
       N       E                     dE             d eps       ncg     rms          rms(c)
DAV:   1    -0.196304141989E+02   -0.91181E+01   -0.69008E+01  3872   0.136E+02    0.319E+01
DAV:   2    -0.317305783330E+02   -0.12100E+02   -0.14935E+02  3936   0.225E+02    0.309E+01
DAV:   3    -0.116566098297E+02    0.20074E+02   -0.40770E+01  4640   0.100E+02    0.781E+00
DAV:   4    -0.115668002056E+02    0.89810E-01   -0.40291E-01  3968   0.574E+00    0.724E+00
DAV:   5    -0.111552530248E+02    0.41155E+00   -0.18160E-01  4736   0.387E+00    0.634E+00
DAV:   6    -0.106435609403E+02    0.51169E+00   -0.12842E+00  4960   0.193E+01    0.116E+00
DAV:   7    -0.106258148054E+02    0.17746E-01   -0.79932E-02  5216   0.376E+00    0.607E-01
DAV:   8    -0.106211879760E+02    0.46268E-02   -0.64735E-03  4720   0.119E+00    0.306E-01
DAV:   9    -0.106204184279E+02    0.76955E-03   -0.15024E-03  4656   0.569E-01    0.119E-01
DAV:  10    -0.106203399514E+02    0.78476E-04   -0.16891E-04  5136   0.190E-01    0.446E-02
DAV:  11    -0.106203257112E+02    0.14240E-04   -0.46450E-05  4568   0.105E-01    0.818E-03
DAV:  12    -0.106203252071E+02    0.50402E-06   -0.19181E-06  5096   0.158E-02    0.283E-03
DAV:  13    -0.106203251228E+02    0.84378E-07   -0.15544E-07  5472   0.614E-03    0.583E-04
DAV:  14    -0.106203250870E+02    0.35734E-07   -0.70509E-09  2040   0.108E-03    0.177E-04
DAV:  15    -0.106203250678E+02    0.19236E-07   -0.32653E-09  2000   0.710E-04    0.633E-05
DAV:  16    -0.106203250626E+02    0.51582E-08   -0.91012E-10  1952   0.470E-04
   3 F= -.10620325E+02 E0= -.10620233E+02  d E =-.257014E+00  mag=     0.0000
       N       E                     dE             d eps       ncg     rms          rms(c)
DAV:   1    -0.112206962091E+02   -0.60037E+00   -0.11749E+01  4424   0.376E+01    0.655E+00
DAV:   2    -0.112998287769E+02   -0.79133E-01   -0.36420E+00  4512   0.304E+01    0.718E+00
DAV:   3    -0.107460731705E+02    0.55376E+00   -0.15343E+00  4232   0.235E+01    0.228E+00
DAV:   4    -0.106791668865E+02    0.66906E-01   -0.13971E-01  4896   0.398E+00    0.290E-01
DAV:   5    -0.106783073790E+02    0.85951E-03   -0.67879E-03  4432   0.119E+00    0.123E-01
DAV:   6    -0.106782108882E+02    0.96491E-04   -0.45994E-04  5032   0.310E-01    0.211E-02
DAV:   7    -0.106782165658E+02   -0.56777E-05   -0.18188E-05  4248   0.406E-02    0.996E-03
DAV:   8    -0.106782162793E+02    0.28651E-06   -0.22920E-06  5240   0.236E-02    0.124E-03
DAV:   9    -0.106782161472E+02    0.13213E-06   -0.10795E-07  4384   0.331E-03    0.887E-04
DAV:  10    -0.106782161228E+02    0.24346E-07   -0.60189E-09  2272   0.105E-03    0.859E-04
DAV:  11    -0.106782161196E+02    0.32123E-08   -0.25638E-09  2032   0.777E-04
   4 F= -.10678216E+02 E0= -.10678163E+02  d E =-.578911E-01  mag=    -0.0008
       N       E                     dE             d eps       ncg     rms          rms(c)
DAV:   1    -0.156725216058E+02   -0.49943E+01   -0.10527E+02  4672   0.112E+02    0.207E+01
DAV:   2    -0.162132606659E+02   -0.54074E+00   -0.44339E+01  4128   0.986E+01    0.185E+01
DAV:   3    -0.112090826373E+02    0.50042E+01   -0.11414E+01  4176   0.691E+01    0.565E+00
DAV:   4    -0.108439165244E+02    0.36517E+00   -0.99722E-01  5600   0.110E+01    0.221E+00
DAV:   5    -0.108052353908E+02    0.38681E-01   -0.21960E-01  4032   0.856E+00    0.769E-01
DAV:   6    -0.107990151219E+02    0.62203E-02   -0.17704E-02  4816   0.228E+00    0.107E-01
DAV:   7    -0.107990226360E+02   -0.75141E-05   -0.70777E-04  4752   0.289E-01    0.624E-02
DAV:   8    -0.107989737435E+02    0.48892E-04   -0.75597E-05  5344   0.132E-01    0.120E-02
DAV:   9    -0.107989720321E+02    0.17114E-05   -0.90975E-06  5208   0.412E-02    0.409E-03
DAV:  10    -0.107989718106E+02    0.22146E-06   -0.50298E-07  5024   0.912E-03    0.167E-03
DAV:  11    -0.107989717233E+02    0.87337E-07   -0.91756E-08  5024   0.511E-03    0.457E-04
DAV:  12    -0.107989717282E+02   -0.48735E-08   -0.66248E-09  2184   0.130E-03
   5 F= -.10798972E+02 E0= -.10798846E+02  d E =-.178647E+00  mag=     0.0000
       N       E                     dE             d eps       ncg     rms          rms(c)
DAV:   1    -0.115973649716E+02   -0.79839E+00   -0.15379E+01  4496   0.458E+01    0.845E+00
DAV:   2    -0.118401291208E+02   -0.24276E+00   -0.70094E+00  4256   0.448E+01    0.876E+00
DAV:   3    -0.108587376126E+02    0.98139E+00   -0.25049E+00  4048   0.312E+01    0.223E+00
DAV:   4    -0.107958395460E+02    0.62898E-01   -0.16454E-01  5056   0.387E+00    0.594E-01
DAV:   5    -0.107931527384E+02    0.26868E-02   -0.15774E-02  4416   0.223E+00    0.190E-01
DAV:   6    -0.107928330624E+02    0.31968E-03   -0.12893E-03  4672   0.599E-01    0.191E-02
DAV:   7    -0.107928337214E+02   -0.65909E-06   -0.34163E-05  4544   0.534E-02    0.881E-03
DAV:   8    -0.107928325638E+02    0.11576E-05   -0.21388E-06  5136   0.224E-02    0.179E-03
DAV:   9    -0.107928325203E+02    0.43546E-07   -0.13992E-07  4560   0.351E-03    0.673E-04
DAV:  10    -0.107928324896E+02    0.30685E-07   -0.92541E-09  2560   0.170E-03    0.693E-05
DAV:  11    -0.107928324897E+02   -0.11141E-09   -0.12492E-09  2016   0.402E-04
   6 F= -.10792832E+02 E0= -.10792736E+02  d E =-.172507E+00  mag=     0.0000
       N       E                     dE             d eps       ncg     rms          rms(c)
DAV:   1    -0.109929386004E+02   -0.20011E+00   -0.36936E+00  4288   0.236E+01    0.385E+00
DAV:   2    -0.110140489892E+02   -0.21110E-01   -0.12371E+00  4192   0.214E+01    0.417E+00
DAV:   3    -0.108182399530E+02    0.19581E+00   -0.51962E-01  4016   0.139E+01    0.119E+00
DAV:   4    -0.107993192309E+02    0.18921E-01   -0.43869E-02  4704   0.258E+00    0.114E-01
DAV:   5    -0.107992379006E+02    0.81330E-04   -0.15171E-03  4336   0.452E-01    0.632E-02
DAV:   6    -0.107992278819E+02    0.10019E-04   -0.11287E-04  4928   0.151E-01    0.117E-02
DAV:   7    -0.107992278602E+02    0.21681E-07   -0.61150E-06  4720   0.317E-02    0.378E-03
DAV:   8    -0.107992276178E+02    0.24243E-06   -0.46411E-07  4736   0.103E-02    0.114E-03
DAV:   9    -0.107992276480E+02   -0.30177E-07   -0.17314E-08  3136   0.217E-03    0.166E-04
DAV:  10    -0.107992276525E+02   -0.45529E-08   -0.23712E-09  2224   0.631E-04
   7 F= -.10799228E+02 E0= -.10799299E+02  d E =-.178903E+00  mag=    -0.0000
       N       E                     dE             d eps       ncg     rms          rms(c)
DAV:   1    -0.109219190271E+02   -0.12269E+00   -0.23077E+00  4352   0.185E+01    0.303E+00
DAV:   2    -0.109364980433E+02   -0.14579E-01   -0.76157E-01  4256   0.167E+01    0.331E+00
DAV:   3    -0.108132428428E+02    0.12326E+00   -0.32556E-01  3984   0.110E+01    0.963E-01
DAV:   4    -0.108001496936E+02    0.13093E-01   -0.29984E-02  4800   0.209E+00    0.799E-02
DAV:   5    -0.108001488797E+02    0.81395E-06   -0.97494E-04  4240   0.342E-01    0.425E-02
DAV:   6    -0.108001456624E+02    0.32172E-05   -0.52015E-05  4976   0.872E-02    0.802E-03
DAV:   7    -0.108001463055E+02   -0.64303E-06   -0.27983E-06  4560   0.190E-02    0.268E-03
DAV:   8    -0.108001463227E+02   -0.17283E-07   -0.19406E-07  4672   0.639E-03    0.360E-04
DAV:   9    -0.108001463455E+02   -0.22727E-07   -0.45832E-09  2304   0.930E-04    0.142E-04
DAV:  10    -0.108001463515E+02   -0.60636E-08   -0.97999E-10  2064   0.430E-04
   8 F= -.10800146E+02 E0= -.10799977E+02  d E =-.179821E+00  mag=     0.0000
       N       E                     dE             d eps       ncg     rms          rms(c)
DAV:   1    -0.108343876597E+02   -0.34241E-01   -0.65237E-01  4384   0.962E+00    0.162E+00
DAV:   2    -0.108389183841E+02   -0.45307E-02   -0.22345E-01  4304   0.873E+00    0.173E+00
DAV:   3    -0.108039769586E+02    0.34941E-01   -0.91087E-02  4016   0.592E+00    0.506E-01
DAV:   4    -0.108003887025E+02    0.35883E-02   -0.84841E-03  4896   0.102E+00    0.572E-02
DAV:   5    -0.108003727548E+02    0.15948E-04   -0.31934E-04  4320   0.239E-01    0.221E-02
DAV:   6    -0.108003709497E+02    0.18051E-05   -0.15421E-05  4864   0.461E-02    0.365E-03
DAV:   7    -0.108003710127E+02   -0.62937E-07   -0.77150E-07  4608   0.106E-02    0.163E-03
DAV:   8    -0.108003709659E+02    0.46743E-07   -0.63619E-08  4448   0.353E-03    0.188E-04
DAV:   9    -0.108003709469E+02    0.19081E-07   -0.25146E-09  2224   0.716E-04    0.987E-05
DAV:  10    -0.108003709445E+02    0.23506E-08   -0.52628E-10  1984   0.385E-04
   9 F= -.10800371E+02 E0= -.10800334E+02  d E =-.180046E+00  mag=    -0.0000
       N       E                     dE             d eps       ncg     rms          rms(c)
DAV:   1    -0.125664897508E+02   -0.17661E+01   -0.16657E+01  3968   0.707E+01    0.128E+01
DAV:   2    -0.142111235615E+02   -0.16446E+01   -0.24867E+01  4240   0.876E+01    0.178E+01
DAV:   3    -0.108571305740E+02    0.33540E+01   -0.92057E+00  4016   0.536E+01    0.265E+00
DAV:   4    -0.107891154856E+02    0.68015E-01   -0.26033E-01  4768   0.786E+00    0.347E-01
DAV:   5    -0.107858312652E+02    0.32842E-02   -0.11380E-02  5344   0.153E+00    0.219E-01
DAV:   6    -0.107852321025E+02    0.59916E-03   -0.47945E-04  4912   0.312E-01    0.244E-02
DAV:   7    -0.107852257592E+02    0.63433E-05   -0.35516E-05  4848   0.630E-02    0.663E-03
DAV:   8    -0.107852259531E+02   -0.19392E-06   -0.15601E-06  4608   0.168E-02    0.162E-03
DAV:   9    -0.107852260996E+02   -0.14648E-06   -0.13407E-07  5248   0.455E-03    0.372E-04
DAV:  10    -0.107852261156E+02   -0.16080E-07   -0.73608E-09  2496   0.138E-03    0.590E-05
DAV:  11    -0.107852261116E+02    0.40282E-08   -0.12986E-09  2000   0.400E-04
  10 F= -.10785226E+02 E0= -.10785094E+02  d E =0.151448E-01  mag=    -0.0000
       N       E                     dE             d eps       ncg     rms          rms(c)
DAV:   1    -0.117607158455E+02   -0.97549E+00   -0.82762E+00  4000   0.478E+01    0.102E+01
DAV:   2    -0.130813424792E+02   -0.13206E+01   -0.13900E+01  4000   0.708E+01    0.126E+01
DAV:   3    -0.108234550330E+02    0.22579E+01   -0.49215E+00  4032   0.445E+01    0.115E+00
DAV:   4    -0.108181740776E+02    0.52810E-02   -0.20941E-01  4848   0.532E+00    0.124E+00
DAV:   5    -0.108036417971E+02    0.14532E-01   -0.44588E-02  4320   0.391E+00    0.132E-01
DAV:   6    -0.108034534888E+02    0.18831E-03   -0.12659E-03  4528   0.498E-01    0.234E-02
DAV:   7    -0.108034529385E+02    0.55030E-06   -0.44074E-05  5200   0.703E-02    0.566E-03
DAV:   8    -0.108034520948E+02    0.84371E-06   -0.25569E-06  4912   0.247E-02    0.368E-03
DAV:   9    -0.108034517962E+02    0.29856E-06   -0.33476E-07  4544   0.103E-02    0.373E-04
DAV:  10    -0.108034517978E+02   -0.15848E-08   -0.10063E-08  2768   0.118E-03
  11 F= -.10803452E+02 E0= -.10803528E+02  d E =-.308085E-02  mag=     0.0000
       N       E                     dE             d eps       ncg     rms          rms(c)
DAV:   1    -0.108106892334E+02   -0.72374E-02   -0.12199E-01  4336   0.436E+00    0.753E-01
DAV:   2    -0.108129164780E+02   -0.22272E-02   -0.52129E-02  4192   0.433E+00    0.862E-01
DAV:   3    -0.108043298040E+02    0.85867E-02   -0.21804E-02  3968   0.287E+00    0.216E-01
DAV:   4    -0.108036844752E+02    0.64533E-03   -0.15322E-03  4864   0.443E-01    0.233E-02
DAV:   5    -0.108036815023E+02    0.29729E-05   -0.51863E-05  4208   0.889E-02    0.105E-02
DAV:   6    -0.108036812526E+02    0.24973E-06   -0.29727E-06  4864   0.211E-02    0.179E-03
DAV:   7    -0.108036812953E+02   -0.42666E-07   -0.15095E-07  4600   0.466E-03    0.657E-04
DAV:   8    -0.108036813075E+02   -0.12262E-07   -0.10994E-08  2672   0.149E-03    0.957E-05
DAV:   9    -0.108036813149E+02   -0.73951E-08   -0.11639E-09  1968   0.502E-04
  12 F= -.10803681E+02 E0= -.10803703E+02  d E =-.229517E-03  mag=     0.0000
       N       E                     dE             d eps       ncg     rms          rms(c)
DAV:   1    -0.108043979951E+02   -0.71669E-03   -0.12353E-02  4320   0.138E+00    0.240E-01
DAV:   2    -0.108046279528E+02   -0.22996E-03   -0.52737E-03  4192   0.137E+00    0.274E-01
DAV:   3    -0.108037569213E+02    0.87103E-03   -0.22125E-03  3984   0.914E-01    0.683E-02
DAV:   4    -0.108036931294E+02    0.63792E-04   -0.15101E-04  4864   0.138E-01    0.762E-03
DAV:   5    -0.108036928738E+02    0.25561E-06   -0.53594E-06  4256   0.298E-02    0.320E-03
DAV:   6    -0.108036929073E+02   -0.33547E-07   -0.28927E-07  4864   0.633E-03    0.559E-04
DAV:   7    -0.108036929162E+02   -0.88771E-08   -0.13963E-08  3200   0.144E-03
  13 F= -.10803693E+02 E0= -.10803686E+02  d E =-.241118E-03  mag=     0.0000
