 running on   24 total cores
 distrk:  each k-point on   24 cores,    1 groups
 distr:  one band on    6 cores,    4 groups
 using from now: INCAR     
 vasp.5.4.4.18Apr17-6-g9f103f2a35 (build Jan 03 2018 06:08:52) complex          
  
 POSCAR found :  2 types and       5 ions
 scaLAPACK will be used
 WARNING: for PREC=h ENMAX is automatically increase by 25 %
        this was not the case for versions prior to vasp.4.4
 WARNING: for PREC=h ENMAX is automatically increase by 25 %
        this was not the case for versions prior to vasp.4.4
 LDA part: xc-table for Pade appr. of Perdew
 POSCAR, INCAR and KPOINTS ok, starting setup
 FFT: planning ...
 WAVECAR not read
 entering main loop
       N       E                     dE             d eps       ncg     rms          rms(c)
DAV:   1     0.849443203871E+03    0.84944E+03   -0.40867E+04  9264   0.196E+03
DAV:   2     0.196550534238E+02   -0.82979E+03   -0.79873E+03  8244   0.611E+02
DAV:   3    -0.315248831337E+02   -0.51180E+02   -0.47809E+02  8812   0.176E+02
DAV:   4    -0.329238868874E+02   -0.13990E+01   -0.13900E+01  8896   0.281E+01
DAV:   5    -0.329567052377E+02   -0.32818E-01   -0.32815E-01  9328   0.425E+00    0.215E+01
DAV:   6    -0.369376463519E+02   -0.39809E+01   -0.71411E+01  9472   0.113E+02    0.288E+01
DAV:   7    -0.300575734540E+02    0.68801E+01   -0.25827E+01  9360   0.851E+01    0.173E+01
DAV:   8    -0.281757746719E+02    0.18818E+01   -0.48956E+00  9840   0.419E+01    0.654E+00
DAV:   9    -0.281409707547E+02    0.34804E-01   -0.16584E+00  9628   0.199E+01    0.302E+00
DAV:  10    -0.281194183262E+02    0.21552E-01   -0.34493E-01  8880   0.933E+00    0.165E+00
DAV:  11    -0.281115515746E+02    0.78668E-02   -0.44901E-02  8880   0.397E+00    0.284E-01
DAV:  12    -0.281120076712E+02   -0.45610E-03   -0.70883E-03  8744   0.744E-01    0.181E-01
DAV:  13    -0.281118692257E+02    0.13845E-03   -0.11593E-03  9468   0.590E-01    0.107E-01
DAV:  14    -0.281118654194E+02    0.38064E-05   -0.23817E-04  9236   0.302E-01    0.411E-02
DAV:  15    -0.281118621222E+02    0.32972E-05   -0.27072E-05  9816   0.581E-02    0.226E-02
DAV:  16    -0.281118601466E+02    0.19756E-05   -0.53170E-06 11404   0.451E-02    0.487E-03
DAV:  17    -0.281118598275E+02    0.31911E-06   -0.13421E-06  8640   0.120E-02    0.408E-03
DAV:  18    -0.281118595067E+02    0.32074E-06   -0.14432E-07  9900   0.543E-03    0.980E-04
DAV:  19    -0.281118594468E+02    0.59888E-07   -0.41723E-08  7292   0.185E-03    0.333E-04
DAV:  20    -0.281118594530E+02   -0.62173E-08   -0.35967E-09  4312   0.813E-04
   1 F= -.28111859E+02 E0= -.28111676E+02  d E =-.281119E+02  mag=     0.7483
 curvature:   0.00 expect dE= 0.000E+00 dE for cont linesearch  0.000E+00
 trial: gam= 0.00000 g(F)=  0.125E-01 g(S)=  0.195E+00 ort = 0.000E+00 (trialstep = 0.100E+01)
 search vector abs. value=  0.207E+00
 bond charge predicted
       N       E                     dE             d eps       ncg     rms          rms(c)
DAV:   1    -0.430810958566E+02   -0.14969E+02   -0.14707E+02  8416   0.181E+02    0.374E+01
DAV:   2    -0.465943582518E+02   -0.35133E+01   -0.22962E+02  9312   0.149E+02    0.376E+01
DAV:   3    -0.368440319047E+02    0.97503E+01   -0.77140E+01  9900   0.114E+02    0.333E+01
DAV:   4    -0.284676894029E+02    0.83763E+01   -0.19231E+01  9092   0.602E+01    0.624E+00
DAV:   5    -0.282048358228E+02    0.26285E+00   -0.16673E+00  8684   0.133E+01    0.250E+00
DAV:   6    -0.281595545716E+02    0.45281E-01   -0.21153E-01  8492   0.725E+00    0.210E+00
DAV:   7    -0.281417644879E+02    0.17790E-01   -0.50018E-02  9836   0.472E+00    0.874E-01
DAV:   8    -0.281428891575E+02   -0.11247E-02   -0.60432E-03  8520   0.667E-01    0.963E-01
DAV:   9    -0.281422072736E+02    0.68188E-03   -0.40597E-03  8724   0.772E-01    0.106E+00
DAV:  10    -0.281387120391E+02    0.34952E-02   -0.10464E-02  9868   0.123E+00    0.671E-01
DAV:  11    -0.281372929216E+02    0.14191E-02   -0.77220E-03  8600   0.104E+00    0.328E-01
DAV:  12    -0.281370319560E+02    0.26097E-03   -0.14816E-03  9040   0.589E-01    0.116E-01
DAV:  13    -0.281371456774E+02   -0.11372E-03   -0.24795E-04  9244   0.177E-01    0.131E-01
DAV:  14    -0.281370934977E+02    0.52180E-04   -0.63177E-05 10008   0.123E-01    0.665E-02
DAV:  15    -0.281370907157E+02    0.27821E-05   -0.20449E-05  9460   0.500E-02    0.353E-02
DAV:  16    -0.281370895642E+02    0.11515E-05   -0.16076E-05  8852   0.485E-02    0.131E-02
DAV:  17    -0.281370905833E+02   -0.10191E-05   -0.26855E-06 10900   0.236E-02    0.626E-03
DAV:  18    -0.281370912114E+02   -0.62810E-06   -0.10308E-06 12064   0.140E-02    0.489E-03
DAV:  19    -0.281370913242E+02   -0.11281E-06   -0.44143E-07 11476   0.836E-03    0.476E-03
DAV:  20    -0.281370912969E+02    0.27325E-07   -0.22471E-07  9680   0.474E-03    0.907E-04
DAV:  21    -0.281370913797E+02   -0.82773E-07   -0.36354E-08  6620   0.255E-03    0.960E-04
DAV:  22    -0.281370913993E+02   -0.19614E-07   -0.29931E-08  4844   0.262E-03    0.366E-04
DAV:  23    -0.281370914132E+02   -0.13879E-07   -0.14060E-08  4644   0.980E-04    0.260E-04
DAV:  24    -0.281370914192E+02   -0.60099E-08   -0.28340E-09  4112   0.589E-04
   2 F= -.28137091E+02 E0= -.28136726E+02  d E =-.252320E-01  mag=     0.0000
 trial-energy change:   -0.025232  1 .order   -0.045640   -0.207401    0.116120
 step:   0.5473(harm=  0.6411)  dis= 0.00582  next Energy=   -28.165269 (dE=-0.534E-01)
 bond charge predicted
       N       E                     dE             d eps       ncg     rms          rms(c)
DAV:   1    -0.312013608824E+02   -0.30643E+01   -0.29619E+01  8624   0.795E+01    0.173E+01
DAV:   2    -0.325209360400E+02   -0.13196E+01   -0.36646E+01  9344   0.767E+01    0.179E+01
DAV:   3    -0.291092691937E+02    0.34117E+01   -0.12452E+01  9312   0.639E+01    0.140E+01
DAV:   4    -0.282461760394E+02    0.86309E+00   -0.37583E+00  9248   0.333E+01    0.388E+00
DAV:   5    -0.281813004964E+02    0.64876E-01   -0.51660E-01  9568   0.104E+01    0.206E+00
DAV:   6    -0.281587501201E+02    0.22550E-01   -0.81627E-02  8816   0.348E+00    0.290E-01
DAV:   7    -0.281585911332E+02    0.15899E-03   -0.66837E-03  8848   0.903E-01    0.304E-01
DAV:   8    -0.281583254155E+02    0.26572E-03   -0.54509E-04 10224   0.388E-01    0.781E-02
DAV:   9    -0.281582994814E+02    0.25934E-04   -0.13485E-04 11776   0.164E-01    0.373E-02
DAV:  10    -0.281582953770E+02    0.41044E-05   -0.25942E-05  9728   0.985E-02    0.191E-02
DAV:  11    -0.281582942688E+02    0.11082E-05   -0.42701E-06  9248   0.380E-02    0.536E-03
DAV:  12    -0.281582942755E+02   -0.67321E-08   -0.58019E-07  9156   0.988E-03    0.564E-03
DAV:  13    -0.281582941355E+02    0.13999E-06   -0.12828E-07  7980   0.440E-03    0.228E-03
DAV:  14    -0.281582941908E+02   -0.55321E-07   -0.62499E-08  7392   0.273E-03    0.113E-03
DAV:  15    -0.281582942110E+02   -0.20180E-07   -0.15813E-08  4892   0.156E-03    0.713E-04
DAV:  16    -0.281582942177E+02   -0.66357E-08   -0.47344E-09  4180   0.893E-04
   3 F= -.28158294E+02 E0= -.28157584E+02  d E =-.464348E-01  mag=    -0.0000
 curvature:  -0.30 expect dE=-0.668E-02 dE for cont linesearch -0.710E-03
 ZBRENT: interpolating
 opt :   0.6200  next Energy=   -28.159101 (dE=-0.472E-01)
 bond charge predicted
       N       E                     dE             d eps       ncg     rms          rms(c)
DAV:   1    -0.282377781148E+02   -0.79484E-01   -0.75275E-01  8568   0.129E+01    0.278E+00
DAV:   2    -0.282821604786E+02   -0.44382E-01   -0.10357E+00  9376   0.120E+01    0.347E+00
DAV:   3    -0.282844459124E+02   -0.22854E-02   -0.72123E-01  9480   0.130E+01    0.490E+00
DAV:   4    -0.281604717613E+02    0.12397E+00   -0.26898E-01  9088   0.940E+00    0.365E-01
DAV:   5    -0.281598062424E+02    0.66552E-03   -0.23773E-02  8472   0.124E+00    0.295E-01
DAV:   6    -0.281590622405E+02    0.74400E-03   -0.16266E-03  9376   0.470E-01    0.603E-02
DAV:   7    -0.281590581738E+02    0.40668E-05   -0.11116E-04  8868   0.152E-01    0.277E-02
DAV:   8    -0.281590594049E+02   -0.12311E-05   -0.21043E-05  8756   0.757E-02    0.143E-02
DAV:   9    -0.281590596015E+02   -0.19663E-06   -0.20432E-06  8956   0.200E-02    0.153E-02
DAV:  10    -0.281590585550E+02    0.10465E-05   -0.86818E-07 10052   0.127E-02    0.673E-03
DAV:  11    -0.281590585773E+02   -0.22344E-07   -0.35937E-07  8692   0.711E-03    0.233E-03
DAV:  12    -0.281590587056E+02   -0.12830E-06   -0.17113E-07  9004   0.458E-03    0.130E-03
DAV:  13    -0.281590587345E+02   -0.28853E-07   -0.14669E-08  4604   0.152E-03    0.626E-04
DAV:  14    -0.281590587307E+02    0.37853E-08   -0.32047E-09  4248   0.794E-04
   4 F= -.28159059E+02 E0= -.28158406E+02  d E =-.471993E-01  mag=    -0.0000
 curvature:  -0.34 expect dE=-0.840E-02 dE for cont linesearch -0.526E-06
 trial: gam= 0.12209 g(F)=  0.384E-02 g(S)=  0.209E-01 ort =-0.567E-03 (trialstep = 0.924E+00)
 search vector abs. value=  0.277E-01
 bond charge predicted
       N       E                     dE             d eps       ncg     rms          rms(c)
DAV:   1    -0.281651370797E+02   -0.60783E-02   -0.61156E+00  9592   0.630E+01    0.408E+00
DAV:   2    -0.282641877513E+02   -0.99051E-01   -0.25884E+00  8640   0.174E+01    0.267E+00
DAV:   3    -0.283239051666E+02   -0.59717E-01   -0.50463E-01  9212   0.136E+01    0.509E+00
DAV:   4    -0.282081120596E+02    0.11579E+00   -0.38272E-01  9480   0.116E+01    0.194E+00
DAV:   5    -0.281767142459E+02    0.31398E-01   -0.78092E-02 10648   0.365E+00    0.323E-01
DAV:   6    -0.281755929199E+02    0.11213E-02   -0.76250E-03  8476   0.124E+00    0.129E-01
DAV:   7    -0.281754085291E+02    0.18439E-03   -0.57883E-04  9064   0.275E-01    0.376E-02
DAV:   8    -0.281754205385E+02   -0.12009E-04   -0.77851E-05  8656   0.876E-02    0.169E-02
DAV:   9    -0.281754200228E+02    0.51567E-06   -0.58753E-06  9712   0.370E-02    0.922E-03
DAV:  10    -0.281754206286E+02   -0.60574E-06   -0.92450E-07  9600   0.123E-02    0.147E-02
DAV:  11    -0.281754194134E+02    0.12152E-05   -0.10556E-06  9744   0.137E-02    0.489E-03
DAV:  12    -0.281754196178E+02   -0.20446E-06   -0.30065E-07  9160   0.686E-03    0.212E-03
DAV:  13    -0.281754196563E+02   -0.38441E-07   -0.41676E-08  7572   0.269E-03    0.214E-03
DAV:  14    -0.281754196303E+02    0.25921E-07   -0.38456E-08  6332   0.268E-03    0.243E-04
DAV:  15    -0.281754196377E+02   -0.73396E-08   -0.48512E-09  4124   0.810E-04
   5 F= -.28175420E+02 E0= -.28175191E+02  d E =-.163609E-01  mag=    -0.0000
 trial-energy change:   -0.016361  1 .order   -0.016174   -0.022810   -0.009537
 step:   1.5074(harm=  1.5879)  dis= 0.01038  next Energy=   -28.178477 (dE=-0.194E-01)
 bond charge predicted
       N       E                     dE             d eps       ncg     rms          rms(c)
DAV:   1    -0.281771849245E+02   -0.17653E-02   -0.24559E+00  9880   0.398E+01    0.261E+00
DAV:   2    -0.282179529371E+02   -0.40768E-01   -0.10170E+00  8632   0.114E+01    0.202E+00
DAV:   3    -0.282755690794E+02   -0.57616E-01   -0.28372E-01  9400   0.112E+01    0.430E+00
DAV:   4    -0.281889243396E+02    0.86645E-01   -0.18446E-01  9496   0.827E+00    0.832E-01
DAV:   5    -0.281792399438E+02    0.96844E-02   -0.20983E-02  9752   0.169E+00    0.157E-01
DAV:   6    -0.281788391101E+02    0.40083E-03   -0.22795E-03  8552   0.645E-01    0.791E-02
DAV:   7    -0.281787730916E+02    0.66019E-04   -0.20696E-04  9208   0.164E-01    0.208E-02
DAV:   8    -0.281787793998E+02   -0.63082E-05   -0.30836E-05  8924   0.599E-02    0.171E-02
DAV:   9    -0.281787798579E+02   -0.45811E-06   -0.12391E-06  8616   0.107E-02    0.209E-02
DAV:  10    -0.281787776641E+02    0.21938E-05   -0.12217E-06  9312   0.130E-02    0.115E-02
DAV:  11    -0.281787774017E+02    0.26243E-06   -0.76412E-07  9244   0.103E-02    0.267E-03
DAV:  12    -0.281787775706E+02   -0.16892E-06   -0.20375E-07  9664   0.501E-03    0.375E-03
DAV:  13    -0.281787775704E+02    0.24738E-09   -0.82267E-08  7712   0.397E-03
   6 F= -.28178778E+02 E0= -.28178657E+02  d E =-.197188E-01  mag=    -0.0001
 curvature:  -0.88 expect dE=-0.512E-02 dE for cont linesearch -0.395E-04
 trial: gam= 0.16254 g(F)=  0.708E-04 g(S)=  0.577E-02 ort = 0.112E-02 (trialstep = 0.104E+01)
 search vector abs. value=  0.693E-02
 bond charge predicted
       N       E                     dE             d eps       ncg     rms          rms(c)
DAV:   1    -0.282680940383E+02   -0.89316E-01   -0.19826E+00  8676   0.128E+01    0.284E+00
DAV:   2    -0.283594391006E+02   -0.91345E-01   -0.67337E-01  9348   0.150E+01    0.547E+00
DAV:   3    -0.282381826162E+02    0.12126E+00   -0.57162E-01  9368   0.151E+01    0.294E+00
DAV:   4    -0.281909503044E+02    0.47232E-01   -0.12551E-01  9536   0.581E+00    0.668E-01
DAV:   5    -0.281843660113E+02    0.65843E-02   -0.15203E-02  9700   0.130E+00    0.210E-01
DAV:   6    -0.281838004633E+02    0.56555E-03   -0.22459E-03  9992   0.601E-01    0.969E-02
DAV:   7    -0.281837380503E+02    0.62413E-04   -0.29723E-04  8792   0.279E-01    0.243E-02
DAV:   8    -0.281837377202E+02    0.33019E-06   -0.26922E-05  8836   0.611E-02    0.216E-02
DAV:   9    -0.281837402235E+02   -0.25034E-05   -0.23890E-06 10928   0.155E-02    0.322E-02
DAV:  10    -0.281837360572E+02    0.41663E-05   -0.74331E-06  9860   0.347E-02    0.139E-02
DAV:  11    -0.281837359184E+02    0.13888E-06   -0.15304E-06  8676   0.162E-02    0.477E-03
DAV:  12    -0.281837359132E+02    0.51987E-08   -0.42811E-07  9448   0.809E-03    0.321E-03
DAV:  13    -0.281837358093E+02    0.10384E-06   -0.15299E-07  9656   0.505E-03    0.490E-04
DAV:  14    -0.281837358162E+02   -0.68449E-08   -0.16448E-08  4792   0.159E-03
   7 F= -.28183736E+02 E0= -.28183456E+02  d E =-.495825E-02  mag=     0.0000
 trial-energy change:   -0.004958  1 .order   -0.004959   -0.006262   -0.003656
 step:   2.5008(harm=  2.5008)  dis= 0.00200  next Energy=   -28.186302 (dE=-0.752E-02)
 bond charge predicted
       N       E                     dE             d eps       ncg     rms          rms(c)
DAV:   1    -0.283543501892E+02   -0.17061E+00   -0.39325E+00  8616   0.180E+01    0.398E+00
DAV:   2    -0.284824526989E+02   -0.12810E+00   -0.13027E+00  9236   0.198E+01    0.696E+00
DAV:   3    -0.283078477048E+02    0.17460E+00   -0.10304E+00  9328   0.204E+01    0.430E+00
DAV:   4    -0.281996905850E+02    0.10816E+00   -0.26066E-01  9760   0.824E+00    0.920E-01
DAV:   5    -0.281876625259E+02    0.12028E-01   -0.31470E-02  9052   0.181E+00    0.305E-01
DAV:   6    -0.281865852269E+02    0.10773E-02   -0.44839E-03  9936   0.875E-01    0.128E-01
DAV:   7    -0.281864598543E+02    0.12537E-03   -0.58315E-04  8816   0.378E-01    0.308E-02
DAV:   8    -0.281864623042E+02   -0.24499E-05   -0.49324E-05  8896   0.704E-02    0.202E-02
DAV:   9    -0.281864655718E+02   -0.32675E-05   -0.61675E-06 10812   0.263E-02    0.341E-02
DAV:  10    -0.281864608082E+02    0.47635E-05   -0.57245E-06  9744   0.312E-02    0.162E-02
DAV:  11    -0.281864606302E+02    0.17802E-06   -0.29925E-06  9048   0.230E-02    0.697E-03
DAV:  12    -0.281864608340E+02   -0.20378E-06   -0.74314E-07  8816   0.120E-02    0.664E-03
DAV:  13    -0.281864605646E+02    0.26940E-06   -0.33459E-07  9784   0.778E-03    0.567E-04
DAV:  14    -0.281864606386E+02   -0.74022E-07   -0.43603E-08  7276   0.259E-03    0.151E-03
DAV:  15    -0.281864606273E+02    0.11263E-07   -0.15618E-08  4840   0.186E-03    0.329E-04
DAV:  16    -0.281864606279E+02   -0.54933E-09   -0.63664E-09  4088   0.827E-04
   8 F= -.28186461E+02 E0= -.28186072E+02  d E =-.768306E-02  mag=    -0.0001
 curvature:  -1.44 expect dE=-0.350E-02 dE for cont linesearch -0.326E-04
 trial: gam= 0.40429 g(F)=  0.358E-04 g(S)=  0.240E-02 ort = 0.396E-03 (trialstep = 0.133E+01)
 search vector abs. value=  0.389E-02
 bond charge predicted
       N       E                     dE             d eps       ncg     rms          rms(c)
DAV:   1    -0.284807159107E+02   -0.29426E+00   -0.32717E+00  8680   0.200E+01    0.530E+00
DAV:   2    -0.287531952012E+02   -0.27248E+00   -0.39813E+00  9416   0.246E+01    0.874E+00
DAV:   3    -0.286988141392E+02    0.54381E-01   -0.32439E+00  9448   0.288E+01    0.913E+00
DAV:   4    -0.281923139148E+02    0.50650E+00   -0.10463E+00  9192   0.174E+01    0.784E-01
DAV:   5    -0.281899270511E+02    0.23869E-02   -0.10223E-01  8448   0.242E+00    0.549E-01
DAV:   6    -0.281870457324E+02    0.28813E-02   -0.74480E-03  9636   0.915E-01    0.750E-02
DAV:   7    -0.281870155614E+02    0.30171E-04   -0.47244E-04  8336   0.270E-01    0.383E-02
DAV:   8    -0.281870203184E+02   -0.47570E-05   -0.26505E-05 11120   0.689E-02    0.418E-02
DAV:   9    -0.281870180178E+02    0.23007E-05   -0.22723E-06  8392   0.176E-02    0.401E-02
DAV:  10    -0.281870129277E+02    0.50901E-05   -0.21505E-06 10220   0.205E-02    0.231E-02
DAV:  11    -0.281870178985E+02   -0.49709E-05   -0.13835E-05 10096   0.497E-02    0.319E-02
DAV:  12    -0.281870129690E+02    0.49295E-05   -0.77191E-06  9036   0.458E-02    0.110E-02
DAV:  13    -0.281870146748E+02   -0.17058E-05   -0.25311E-06 10364   0.195E-02    0.121E-02
DAV:  14    -0.281870144060E+02    0.26882E-06   -0.69292E-07  8692   0.129E-02    0.945E-03
DAV:  15    -0.281870141245E+02    0.28151E-06   -0.23021E-07  9796   0.592E-03    0.326E-03
DAV:  16    -0.281870142056E+02   -0.81085E-07   -0.10415E-07  8664   0.407E-03    0.199E-03
DAV:  17    -0.281870142160E+02   -0.10450E-07   -0.30594E-08  6612   0.261E-03    0.188E-03
DAV:  18    -0.281870141979E+02    0.18164E-07   -0.10459E-08  4108   0.150E-03    0.548E-04
DAV:  19    -0.281870141992E+02   -0.13279E-08   -0.53599E-09  4076   0.675E-04
   9 F= -.28187014E+02 E0= -.28186687E+02  d E =-.553571E-03  mag=    -0.0001
 trial-energy change:   -0.000554  1 .order   -0.000545   -0.003456    0.002367
 step:   0.7940(harm=  0.7910)  dis= 0.00020  next Energy=   -28.187492 (dE=-0.103E-02)
 bond charge predicted
       N       E                     dE             d eps       ncg     rms          rms(c)
DAV:   1    -0.282347233885E+02   -0.47709E-01   -0.53371E-01  8680   0.799E+00    0.212E+00
DAV:   2    -0.282722511938E+02   -0.37528E-01   -0.52924E-01  9408   0.968E+00    0.303E+00
DAV:   3    -0.282547951582E+02    0.17456E-01   -0.42127E-01  9432   0.136E+01    0.352E+00
DAV:   4    -0.281881595897E+02    0.66636E-01   -0.13008E-01  9376   0.715E+00    0.340E-01
DAV:   5    -0.281881925870E+02   -0.32997E-04   -0.19476E-02  8584   0.133E+00    0.271E-01
DAV:   6    -0.281875085062E+02    0.68408E-03   -0.15507E-03  8992   0.485E-01    0.582E-02
DAV:   7    -0.281874963102E+02    0.12196E-04   -0.14052E-04  9764   0.143E-01    0.413E-02
DAV:   8    -0.281875004926E+02   -0.41824E-05   -0.11489E-05  8264   0.388E-02    0.517E-02
DAV:   9    -0.281874903758E+02    0.10117E-04   -0.77741E-06  9528   0.424E-02    0.301E-02
DAV:  10    -0.281874886959E+02    0.16800E-05   -0.42156E-06  8808   0.239E-02    0.810E-03
DAV:  11    -0.281874892982E+02   -0.60238E-06   -0.15506E-06  9276   0.125E-02    0.603E-03
DAV:  12    -0.281874892086E+02    0.89618E-07   -0.36464E-07  9376   0.869E-03    0.346E-03
DAV:  13    -0.281874891991E+02    0.95479E-08   -0.17614E-07  9088   0.547E-03    0.172E-03
DAV:  14    -0.281874892121E+02   -0.12993E-07   -0.33044E-08  6716   0.268E-03    0.148E-03
DAV:  15    -0.281874892042E+02    0.78362E-08   -0.49935E-09  4092   0.891E-04
  10 F= -.28187489E+02 E0= -.28187135E+02  d E =-.102858E-02  mag=     0.0001
 curvature:  -0.59 expect dE=-0.254E-03 dE for cont linesearch -0.119E-07
 trial: gam= 0.26629 g(F)=  0.429E-05 g(S)=  0.424E-03 ort =-0.884E-05 (trialstep = 0.122E+01)
 search vector abs. value=  0.699E-03
 bond charge predicted
       N       E                     dE             d eps       ncg     rms          rms(c)
DAV:   1    -0.281983507844E+02   -0.10862E-01   -0.26905E-01  9192   0.478E+00    0.946E-01
DAV:   2    -0.281922244376E+02    0.61263E-02   -0.33257E-02  9208   0.248E+00    0.576E-01
DAV:   3    -0.281938564163E+02   -0.16320E-02   -0.23679E-02  9512   0.273E+00    0.105E+00
DAV:   4    -0.281904256876E+02    0.34307E-02   -0.25717E-02  9360   0.313E+00    0.617E-01
DAV:   5    -0.281878403522E+02    0.25853E-02   -0.36460E-03 10056   0.141E+00    0.635E-02
DAV:   6    -0.281878085376E+02    0.31815E-04   -0.64219E-04  8588   0.236E-01    0.218E-02
DAV:   7    -0.281878055035E+02    0.30341E-05   -0.30246E-05  9536   0.634E-02    0.165E-02
DAV:   8    -0.281878068871E+02   -0.13836E-05   -0.16915E-06  9472   0.128E-02    0.239E-02
DAV:   9    -0.281878045944E+02    0.22927E-05   -0.29499E-06  9220   0.246E-02    0.107E-02
DAV:  10    -0.281878046924E+02   -0.97991E-07   -0.10454E-06  9812   0.135E-02    0.282E-03
DAV:  11    -0.281878049631E+02   -0.27072E-06   -0.14248E-07  8928   0.468E-03    0.550E-03
DAV:  12    -0.281878047870E+02    0.17609E-06   -0.17724E-07  8928   0.594E-03    0.134E-03
DAV:  13    -0.281878048314E+02   -0.44321E-07   -0.35437E-08  6304   0.218E-03    0.132E-03
DAV:  14    -0.281878048255E+02    0.58717E-08   -0.88806E-09  4088   0.146E-03
  11 F= -.28187805E+02 E0= -.28187493E+02  d E =-.315621E-03  mag=     0.0001
 trial-energy change:   -0.000316  1 .order   -0.000316   -0.000521   -0.000110
 step:   1.5538(harm=  1.5538)  dis= 0.00045  next Energy=   -28.187820 (dE=-0.331E-03)
 bond charge predicted
       N       E                     dE             d eps       ncg     rms          rms(c)
DAV:   1    -0.281885680569E+02   -0.76323E-03   -0.19402E-02  9080   0.129E+00    0.249E-01
DAV:   2    -0.281881602766E+02    0.40778E-03   -0.24395E-03  9272   0.675E-01    0.166E-01
DAV:   3    -0.281883767353E+02   -0.21646E-03   -0.16520E-03  9496   0.842E-01    0.322E-01
DAV:   4    -0.281879690408E+02    0.40769E-03   -0.14418E-03  9352   0.896E-01    0.138E-01
DAV:   5    -0.281878217671E+02    0.14727E-03   -0.23351E-04 10592   0.309E-01    0.182E-02
DAV:   6    -0.281878202776E+02    0.14896E-05   -0.36242E-05  8552   0.593E-02    0.153E-02
DAV:   7    -0.281878208492E+02   -0.57159E-06   -0.11482E-06  9208   0.104E-02    0.198E-02
DAV:   8    -0.281878190847E+02    0.17645E-05   -0.10146E-06  9524   0.120E-02    0.111E-02
DAV:   9    -0.281878190188E+02    0.65900E-07   -0.41589E-07  9404   0.787E-03    0.355E-03
DAV:  10    -0.281878191491E+02   -0.13026E-06   -0.23700E-07 10056   0.653E-03    0.382E-03
DAV:  11    -0.281878190966E+02    0.52481E-07   -0.96941E-08  7836   0.441E-03    0.276E-03
DAV:  12    -0.281878190670E+02    0.29562E-07   -0.31834E-08  5912   0.231E-03    0.433E-04
DAV:  13    -0.281878190822E+02   -0.15199E-07   -0.54719E-09  4072   0.919E-04    0.522E-04
DAV:  14    -0.281878190822E+02    0.32742E-10   -0.17850E-09  4064   0.562E-04
  12 F= -.28187819E+02 E0= -.28187516E+02  d E =-.329878E-03  mag=    -0.0000
 curvature:  -1.28 expect dE=-0.623E-04 dE for cont linesearch -0.142E-07
 trial: gam= 0.04238 g(F)=  0.309E-05 g(S)=  0.457E-04 ort =-0.279E-05 (trialstep = 0.129E+01)
 search vector abs. value=  0.498E-04
 bond charge predicted
       N       E                     dE             d eps       ncg     rms          rms(c)
DAV:   1    -0.281921914600E+02   -0.43724E-02   -0.47141E-02  8600   0.319E+00    0.660E-01
DAV:   2    -0.281940305067E+02   -0.18390E-02   -0.50898E-02  9328   0.275E+00    0.726E-01
DAV:   3    -0.281916649228E+02    0.23656E-02   -0.25653E-02  9400   0.290E+00    0.905E-01
DAV:   4    -0.281879434886E+02    0.37214E-02   -0.12810E-02  9128   0.211E+00    0.118E-01
DAV:   5    -0.281878660469E+02    0.77442E-04   -0.94935E-04  8464   0.315E-01    0.594E-02
DAV:   6    -0.281878328454E+02    0.33201E-04   -0.69580E-05  9264   0.101E-01    0.139E-02
DAV:   7    -0.281878309683E+02    0.18772E-05   -0.64753E-06  9544   0.324E-02    0.739E-03
DAV:   8    -0.281878305850E+02    0.38326E-06   -0.11810E-06  8476   0.178E-02    0.700E-03
DAV:   9    -0.281878303370E+02    0.24805E-06   -0.24433E-07  9768   0.600E-03    0.367E-03
DAV:  10    -0.281878302611E+02    0.75876E-07   -0.16123E-07  9608   0.534E-03    0.196E-03
DAV:  11    -0.281878302578E+02    0.33324E-08   -0.30639E-08  6612   0.250E-03
  13 F= -.28187830E+02 E0= -.28187528E+02  d E =-.111756E-04  mag=    -0.0002
 trial-energy change:   -0.000011  1 .order   -0.000012   -0.000063    0.000039
 step:   0.7830(harm=  0.7960)  dis= 0.00012  next Energy=   -28.187838 (dE=-0.189E-04)
 bond charge predicted
       N       E                     dE             d eps       ncg     rms          rms(c)
DAV:   1    -0.281885167420E+02   -0.68648E-03   -0.72970E-03  8592   0.126E+00    0.260E-01
DAV:   2    -0.281888185845E+02   -0.30184E-03   -0.80033E-03  9304   0.109E+00    0.292E-01
DAV:   3    -0.281884969931E+02    0.32159E-03   -0.35705E-03  9416   0.115E+00    0.372E-01
DAV:   4    -0.281878504572E+02    0.64654E-03   -0.16551E-03  9024   0.951E-01    0.444E-02
DAV:   5    -0.281878434123E+02    0.70449E-05   -0.17096E-04  8464   0.128E-01    0.262E-02
DAV:   6    -0.281878385197E+02    0.48926E-05   -0.11639E-05  9116   0.410E-02    0.163E-02
DAV:   7    -0.281878386422E+02   -0.12248E-06   -0.55587E-07  8872   0.705E-03    0.184E-02
DAV:   8    -0.281878393865E+02   -0.74433E-06   -0.78194E-07  9444   0.130E-02    0.213E-02
DAV:   9    -0.281878398739E+02   -0.48742E-06   -0.10446E-07  8496   0.453E-03    0.232E-02
DAV:  10    -0.281878401004E+02   -0.22648E-06   -0.30967E-08  6344   0.242E-03    0.245E-02
DAV:  11    -0.281878403000E+02   -0.19962E-06   -0.56446E-09  4308   0.116E-03    0.255E-02
DAV:  12    -0.281878405847E+02   -0.28469E-06   -0.83070E-09  4108   0.119E-03    0.268E-02
DAV:  13    -0.281878406751E+02   -0.90356E-07   -0.52165E-09  4080   0.603E-04    0.276E-02
DAV:  14    -0.281878398315E+02    0.84353E-06   -0.53845E-08  7348   0.406E-03    0.247E-02
DAV:  15    -0.281878394168E+02    0.41471E-06   -0.40702E-08  6364   0.257E-03    0.218E-02
DAV:  16    -0.281878387407E+02    0.67614E-06   -0.89779E-08  8444   0.450E-03    0.174E-02
DAV:  17    -0.281878382853E+02    0.45533E-06   -0.11015E-07  8744   0.452E-03    0.123E-02
DAV:  18    -0.281878379490E+02    0.33633E-06   -0.15773E-07  8748   0.575E-03    0.607E-03
DAV:  19    -0.281878379711E+02   -0.22130E-07   -0.89710E-08  7984   0.352E-03    0.160E-03
DAV:  20    -0.281878380175E+02   -0.46406E-07   -0.16499E-08  5108   0.152E-03    0.318E-04
DAV:  21    -0.281878380248E+02   -0.72905E-08   -0.40539E-09  4048   0.856E-04
  14 F= -.28187838E+02 E0= -.28187535E+02  d E =-.189426E-04  mag=     0.0000
 curvature:  -0.41 expect dE=-0.553E-05 dE for cont linesearch -0.323E-08
 trial: gam= 0.26366 g(F)=  0.818E-06 g(S)=  0.128E-04 ort = 0.629E-06 (trialstep = 0.119E+01)
 search vector abs. value=  0.174E-04
 bond charge predicted
       N       E                     dE             d eps       ncg     rms          rms(c)
DAV:   1    -0.281880706344E+02   -0.23262E-03   -0.69056E-03 10168   0.156E+00    0.176E-01
DAV:   2    -0.281886896737E+02   -0.61904E-03   -0.37250E-03  9504   0.102E+00    0.383E-01
DAV:   3    -0.281881621277E+02    0.52755E-03   -0.27450E-03  9376   0.122E+00    0.227E-01
DAV:   4    -0.281878694821E+02    0.29265E-03   -0.53564E-04  9432   0.531E-01    0.392E-02
DAV:   5    -0.281878484214E+02    0.21061E-04   -0.70880E-05  8668   0.931E-02    0.155E-02
DAV:   6    -0.281878467154E+02    0.17060E-05   -0.98424E-06  9156   0.375E-02    0.697E-03
DAV:   7    -0.281878471139E+02   -0.39855E-06   -0.86692E-07  8796   0.110E-02    0.113E-02
DAV:   8    -0.281878464666E+02    0.64731E-06   -0.46049E-07  9304   0.930E-03    0.495E-03
DAV:   9    -0.281878466880E+02   -0.22135E-06   -0.42543E-07  9484   0.797E-03    0.414E-03
DAV:  10    -0.281878467692E+02   -0.81291E-07   -0.97370E-08  7652   0.444E-03    0.464E-03
DAV:  11    -0.281878466622E+02    0.10705E-06   -0.14436E-07  9048   0.539E-03    0.333E-04
DAV:  12    -0.281878467169E+02   -0.54668E-07   -0.19369E-08  5416   0.167E-03    0.146E-03
DAV:  13    -0.281878467075E+02    0.93132E-08   -0.77725E-09  4080   0.141E-03
  15 F= -.28187847E+02 E0= -.28187545E+02  d E =-.868272E-05  mag=    -0.0001
 trial-energy change:   -0.000009  1 .order   -0.000009   -0.000016   -0.000001
 step:   1.2486(harm=  1.2509)  dis= 0.00015  next Energy=   -28.187847 (dE=-0.870E-05)
 bond charge predicted
       N       E                     dE             d eps       ncg     rms          rms(c)
DAV:   1    -0.281878473232E+02   -0.60636E-06   -0.17235E-05 10172   0.778E-02    0.881E-03
DAV:   2    -0.281878486930E+02   -0.13698E-05   -0.92658E-06  9504   0.510E-02    0.193E-02
DAV:   3    -0.281878474495E+02    0.12435E-05   -0.69196E-06  9376   0.628E-02    0.113E-02
DAV:   4    -0.281878467656E+02    0.68396E-06   -0.13206E-06  9416   0.258E-02    0.263E-03
DAV:   5    -0.281878468002E+02   -0.34648E-07   -0.20124E-07  8792   0.497E-03    0.421E-03
DAV:   6    -0.281878467410E+02    0.59174E-07   -0.59752E-08  6704   0.330E-03    0.258E-03
DAV:   7    -0.281878467223E+02    0.18774E-07   -0.88081E-08  6592   0.332E-03    0.110E-03
DAV:   8    -0.281878467385E+02   -0.16231E-07   -0.17195E-08  4996   0.198E-03    0.111E-03
DAV:   9    -0.281878467372E+02    0.12515E-08   -0.11625E-08  4104   0.157E-03
  16 F= -.28187847E+02 E0= -.28187545E+02  d E =-.871242E-05  mag=    -0.0001
 curvature:  -0.79 expect dE=-0.136E-05 dE for cont linesearch -0.267E-10
 trial: gam= 0.14925 g(F)=  0.218E-07 g(S)=  0.171E-05 ort = 0.242E-07 (trialstep = 0.120E+01)
 search vector abs. value=  0.212E-05
 reached required accuracy - stopping structural energy minimisation
 writing wavefunctions
