   5   5   0   0
  0.1452209E+02  0.4668252E-09  0.4668252E-09  0.6627360E-09  0.5000000E-15
  1.000000000000000E-004
  CAR 
 unknown system                          
     22.89630324    -58.94275587  301      8.54537848      1.00000000
    -58.943  0.0000E+00  0.0000E+00  0.0000E+00  0.0000E+00
    -58.670  0.0000E+00  0.0000E+00  0.0000E+00  0.0000E+00
    -58.397  0.0000E+00  0.0000E+00  0.0000E+00  0.0000E+00
    -58.124  0.0000E+00  0.0000E+00  0.0000E+00  0.0000E+00
    -57.852  0.0000E+00  0.0000E+00  0.0000E+00  0.0000E+00
    -57.579  0.0000E+00  0.0000E+00  0.0000E+00  0.0000E+00
    -57.306  0.0000E+00  0.0000E+00  0.0000E+00  0.0000E+00
    -57.033  0.0000E+00  0.0000E+00  0.0000E+00  0.0000E+00
    -56.760  0.0000E+00  0.0000E+00  0.0000E+00  0.0000E+00
    -56.488  0.0000E+00  0.0000E+00  0.0000E+00  0.0000E+00
    -56.215  0.0000E+00  0.0000E+00  0.0000E+00  0.0000E+00
    -55.942  0.0000E+00  0.0000E+00  0.0000E+00  0.0000E+00
    -55.669  0.0000E+00  0.0000E+00  0.0000E+00  0.0000E+00
    -55.396  0.0000E+00  0.0000E+00  0.0000E+00  0.0000E+00
    -55.124  0.0000E+00  0.0000E+00  0.2000E+01  0.2000E+01
    -54.851  0.0000E+00  0.0000E+00  0.3000E+01  0.3000E+01
    -54.578  0.0000E+00  0.0000E+00  0.3000E+01  0.3000E+01
    -54.305  0.0000E+00  0.0000E+00  0.3000E+01  0.3000E+01
    -54.032  0.0000E+00  0.0000E+00  0.3000E+01  0.3000E+01
    -53.760  0.0000E+00  0.0000E+00  0.3000E+01  0.3000E+01
    -53.487  0.0000E+00  0.0000E+00  0.3000E+01  0.3000E+01
    -53.214  0.0000E+00  0.0000E+00  0.3000E+01  0.3000E+01
    -52.941  0.0000E+00  0.0000E+00  0.3000E+01  0.3000E+01
    -52.668  0.0000E+00  0.0000E+00  0.3000E+01  0.3000E+01
    -52.396  0.0000E+00  0.0000E+00  0.3000E+01  0.3000E+01
    -52.123  0.0000E+00  0.0000E+00  0.3000E+01  0.3000E+01
    -51.850  0.0000E+00  0.0000E+00  0.3000E+01  0.3000E+01
    -51.577  0.0000E+00  0.0000E+00  0.3000E+01  0.3000E+01
    -51.304  0.0000E+00  0.0000E+00  0.3000E+01  0.3000E+01
    -51.032  0.0000E+00  0.0000E+00  0.3000E+01  0.3000E+01
    -50.759  0.0000E+00  0.0000E+00  0.3000E+01  0.3000E+01
    -50.486  0.0000E+00  0.0000E+00  0.3000E+01  0.3000E+01
    -50.213  0.0000E+00  0.0000E+00  0.3000E+01  0.3000E+01
    -49.940  0.0000E+00  0.0000E+00  0.3000E+01  0.3000E+01
    -49.668  0.0000E+00  0.0000E+00  0.3000E+01  0.3000E+01
    -49.395  0.0000E+00  0.0000E+00  0.3000E+01  0.3000E+01
    -49.122  0.0000E+00  0.0000E+00  0.3000E+01  0.3000E+01
    -48.849  0.0000E+00  0.0000E+00  0.3000E+01  0.3000E+01
    -48.576  0.0000E+00  0.0000E+00  0.3000E+01  0.3000E+01
    -48.304  0.0000E+00  0.0000E+00  0.3000E+01  0.3000E+01
    -48.031  0.0000E+00  0.0000E+00  0.3000E+01  0.3000E+01
    -47.758  0.0000E+00  0.0000E+00  0.3000E+01  0.3000E+01
    -47.485  0.0000E+00  0.0000E+00  0.3000E+01  0.3000E+01
    -47.212  0.0000E+00  0.0000E+00  0.3000E+01  0.3000E+01
    -46.940  0.0000E+00  0.0000E+00  0.3000E+01  0.3000E+01
    -46.667  0.0000E+00  0.0000E+00  0.3000E+01  0.3000E+01
    -46.394  0.0000E+00  0.0000E+00  0.3000E+01  0.3000E+01
    -46.121  0.0000E+00  0.0000E+00  0.3000E+01  0.3000E+01
    -45.849  0.0000E+00  0.0000E+00  0.3000E+01  0.3000E+01
    -45.576  0.0000E+00  0.0000E+00  0.3000E+01  0.3000E+01
    -45.303  0.0000E+00  0.0000E+00  0.3000E+01  0.3000E+01
    -45.030  0.0000E+00  0.0000E+00  0.3000E+01  0.3000E+01
    -44.757  0.0000E+00  0.0000E+00  0.3000E+01  0.3000E+01
    -44.485  0.0000E+00  0.0000E+00  0.3000E+01  0.3000E+01
    -44.212  0.0000E+00  0.0000E+00  0.3000E+01  0.3000E+01
    -43.939  0.0000E+00  0.0000E+00  0.3000E+01  0.3000E+01
    -43.666  0.0000E+00  0.0000E+00  0.3000E+01  0.3000E+01
    -43.393  0.0000E+00  0.0000E+00  0.3000E+01  0.3000E+01
    -43.121  0.0000E+00  0.0000E+00  0.3000E+01  0.3000E+01
    -42.848  0.0000E+00  0.0000E+00  0.3000E+01  0.3000E+01
    -42.575  0.0000E+00  0.0000E+00  0.3000E+01  0.3000E+01
    -42.302  0.0000E+00  0.0000E+00  0.3000E+01  0.3000E+01
    -42.029  0.0000E+00  0.0000E+00  0.3000E+01  0.3000E+01
    -41.757  0.0000E+00  0.0000E+00  0.3000E+01  0.3000E+01
    -41.484  0.0000E+00  0.0000E+00  0.3000E+01  0.3000E+01
    -41.211  0.0000E+00  0.0000E+00  0.3000E+01  0.3000E+01
    -40.938  0.0000E+00  0.0000E+00  0.3000E+01  0.3000E+01
    -40.665  0.0000E+00  0.0000E+00  0.3000E+01  0.3000E+01
    -40.393  0.0000E+00  0.0000E+00  0.3000E+01  0.3000E+01
    -40.120  0.0000E+00  0.0000E+00  0.3000E+01  0.3000E+01
    -39.847  0.0000E+00  0.0000E+00  0.3000E+01  0.3000E+01
    -39.574  0.0000E+00  0.0000E+00  0.3000E+01  0.3000E+01
    -39.301  0.0000E+00  0.0000E+00  0.3000E+01  0.3000E+01
    -39.029  0.0000E+00  0.0000E+00  0.3000E+01  0.3000E+01
    -38.756  0.0000E+00  0.0000E+00  0.3000E+01  0.3000E+01
    -38.483  0.0000E+00  0.0000E+00  0.3000E+01  0.3000E+01
    -38.210  0.0000E+00  0.0000E+00  0.3000E+01  0.3000E+01
    -37.937  0.0000E+00  0.0000E+00  0.3000E+01  0.3000E+01
    -37.665  0.0000E+00  0.0000E+00  0.3000E+01  0.3000E+01
    -37.392  0.0000E+00  0.0000E+00  0.3000E+01  0.3000E+01
    -37.119  0.0000E+00  0.0000E+00  0.3000E+01  0.3000E+01
    -36.846  0.0000E+00  0.0000E+00  0.3000E+01  0.3000E+01
    -36.573  0.0000E+00  0.0000E+00  0.3000E+01  0.3000E+01
    -36.301  0.0000E+00  0.0000E+00  0.3000E+01  0.3000E+01
    -36.028  0.0000E+00  0.0000E+00  0.3000E+01  0.3000E+01
    -35.755  0.0000E+00  0.0000E+00  0.3000E+01  0.3000E+01
    -35.482  0.0000E+00  0.0000E+00  0.3000E+01  0.3000E+01
    -35.209  0.0000E+00  0.0000E+00  0.3000E+01  0.3000E+01
    -34.937  0.0000E+00  0.0000E+00  0.3000E+01  0.3000E+01
    -34.664  0.0000E+00  0.0000E+00  0.3000E+01  0.3000E+01
    -34.391  0.0000E+00  0.0000E+00  0.3000E+01  0.3000E+01
    -34.118  0.0000E+00  0.0000E+00  0.3000E+01  0.3000E+01
    -33.845  0.0000E+00  0.0000E+00  0.3000E+01  0.3000E+01
    -33.573  0.0000E+00  0.0000E+00  0.3000E+01  0.3000E+01
    -33.300  0.0000E+00  0.0000E+00  0.3000E+01  0.3000E+01
    -33.027  0.0000E+00  0.0000E+00  0.3000E+01  0.3000E+01
    -32.754  0.0000E+00  0.0000E+00  0.3000E+01  0.3000E+01
    -32.481  0.0000E+00  0.0000E+00  0.3000E+01  0.3000E+01
    -32.209  0.0000E+00  0.0000E+00  0.3000E+01  0.3000E+01
    -31.936  0.0000E+00  0.0000E+00  0.3000E+01  0.3000E+01
    -31.663  0.0000E+00  0.0000E+00  0.3000E+01  0.3000E+01
    -31.390  0.0000E+00  0.0000E+00  0.3000E+01  0.3000E+01
    -31.117  0.0000E+00  0.0000E+00  0.3000E+01  0.3000E+01
    -30.845  0.0000E+00  0.0000E+00  0.3000E+01  0.3000E+01
    -30.572  0.0000E+00  0.0000E+00  0.3000E+01  0.3000E+01
    -30.299  0.0000E+00  0.0000E+00  0.3000E+01  0.3000E+01
    -30.026  0.0000E+00  0.0000E+00  0.3000E+01  0.3000E+01
    -29.753  0.0000E+00  0.0000E+00  0.3000E+01  0.3000E+01
    -29.481  0.0000E+00  0.0000E+00  0.3000E+01  0.3000E+01
    -29.208  0.0000E+00  0.0000E+00  0.3000E+01  0.3000E+01
    -28.935  0.0000E+00  0.0000E+00  0.3000E+01  0.3000E+01
    -28.662  0.0000E+00  0.0000E+00  0.3000E+01  0.3000E+01
    -28.390  0.0000E+00  0.0000E+00  0.3000E+01  0.3000E+01
    -28.117  0.0000E+00  0.0000E+00  0.3000E+01  0.3000E+01
    -27.844  0.0000E+00  0.0000E+00  0.3000E+01  0.3000E+01
    -27.571  0.0000E+00  0.0000E+00  0.3000E+01  0.3000E+01
    -27.298  0.0000E+00  0.0000E+00  0.3000E+01  0.3000E+01
    -27.026  0.0000E+00  0.0000E+00  0.3000E+01  0.3000E+01
    -26.753  0.0000E+00  0.0000E+00  0.3000E+01  0.3000E+01
    -26.480  0.0000E+00  0.0000E+00  0.3000E+01  0.3000E+01
    -26.207  0.0000E+00  0.0000E+00  0.3000E+01  0.3000E+01
    -25.934  0.0000E+00  0.0000E+00  0.3000E+01  0.3000E+01
    -25.662  0.0000E+00  0.0000E+00  0.3000E+01  0.3000E+01
    -25.389  0.0000E+00  0.0000E+00  0.3000E+01  0.3000E+01
    -25.116  0.0000E+00  0.0000E+00  0.3000E+01  0.3000E+01
    -24.843  0.0000E+00  0.0000E+00  0.3000E+01  0.3000E+01
    -24.570  0.0000E+00  0.0000E+00  0.3000E+01  0.3000E+01
    -24.298  0.0000E+00  0.0000E+00  0.3000E+01  0.3000E+01
    -24.025  0.0000E+00  0.0000E+00  0.3000E+01  0.3000E+01
    -23.752  0.0000E+00  0.0000E+00  0.3000E+01  0.3000E+01
    -23.479  0.0000E+00  0.0000E+00  0.3000E+01  0.3000E+01
    -23.206  0.0000E+00  0.0000E+00  0.3000E+01  0.3000E+01
    -22.934  0.0000E+00  0.0000E+00  0.3000E+01  0.3000E+01
    -22.661  0.0000E+00  0.0000E+00  0.3000E+01  0.3000E+01
    -22.388  0.0000E+00  0.0000E+00  0.3000E+01  0.3000E+01
    -22.115  0.0000E+00  0.0000E+00  0.3000E+01  0.3000E+01
    -21.842  0.0000E+00  0.0000E+00  0.3000E+01  0.3000E+01
    -21.570  0.0000E+00  0.0000E+00  0.3000E+01  0.3000E+01
    -21.297  0.0000E+00  0.0000E+00  0.3000E+01  0.3000E+01
    -21.024  0.0000E+00  0.0000E+00  0.3000E+01  0.3000E+01
    -20.751  0.0000E+00  0.0000E+00  0.3000E+01  0.3000E+01
    -20.478  0.0000E+00  0.0000E+00  0.3000E+01  0.3000E+01
    -20.206  0.0000E+00  0.0000E+00  0.3000E+01  0.3000E+01
    -19.933  0.0000E+00  0.0000E+00  0.3000E+01  0.3000E+01
    -19.660  0.0000E+00  0.0000E+00  0.3000E+01  0.3000E+01
    -19.387  0.0000E+00  0.0000E+00  0.3000E+01  0.3000E+01
    -19.114  0.0000E+00  0.0000E+00  0.3000E+01  0.3000E+01
    -18.842  0.0000E+00  0.0000E+00  0.3000E+01  0.3000E+01
    -18.569  0.0000E+00  0.0000E+00  0.3000E+01  0.3000E+01
    -18.296  0.0000E+00  0.0000E+00  0.3000E+01  0.3000E+01
    -18.023  0.0000E+00  0.0000E+00  0.3000E+01  0.3000E+01
    -17.750  0.0000E+00  0.0000E+00  0.3000E+01  0.3000E+01
    -17.478  0.0000E+00  0.0000E+00  0.3000E+01  0.3000E+01
    -17.205  0.0000E+00  0.0000E+00  0.3000E+01  0.3000E+01
    -16.932  0.0000E+00  0.0000E+00  0.3000E+01  0.3000E+01
    -16.659  0.0000E+00  0.0000E+00  0.3000E+01  0.3000E+01
    -16.386  0.0000E+00  0.0000E+00  0.3000E+01  0.3000E+01
    -16.114  0.0000E+00  0.0000E+00  0.3000E+01  0.3000E+01
    -15.841  0.0000E+00  0.0000E+00  0.3000E+01  0.3000E+01
    -15.568  0.0000E+00  0.0000E+00  0.3000E+01  0.3000E+01
    -15.295  0.0000E+00  0.0000E+00  0.3000E+01  0.3000E+01
    -15.022  0.0000E+00  0.0000E+00  0.3000E+01  0.3000E+01
    -14.750  0.0000E+00  0.0000E+00  0.3000E+01  0.3000E+01
    -14.477  0.0000E+00  0.0000E+00  0.3000E+01  0.3000E+01
    -14.204  0.0000E+00  0.0000E+00  0.3000E+01  0.3000E+01
    -13.931  0.0000E+00  0.0000E+00  0.3000E+01  0.3000E+01
    -13.658  0.0000E+00  0.0000E+00  0.3000E+01  0.3000E+01
    -13.386  0.0000E+00  0.0000E+00  0.3000E+01  0.3000E+01
    -13.113  0.0000E+00  0.0000E+00  0.3000E+01  0.3000E+01
    -12.840  0.0000E+00  0.0000E+00  0.3000E+01  0.3000E+01
    -12.567  0.0000E+00  0.0000E+00  0.3000E+01  0.3000E+01
    -12.294  0.0000E+00  0.0000E+00  0.3000E+01  0.3000E+01
    -12.022  0.0000E+00  0.0000E+00  0.3000E+01  0.3000E+01
    -11.749  0.0000E+00  0.0000E+00  0.3000E+01  0.3000E+01
    -11.476  0.0000E+00  0.0000E+00  0.3000E+01  0.3000E+01
    -11.203  0.0000E+00  0.0000E+00  0.3000E+01  0.3000E+01
    -10.931  0.0000E+00  0.0000E+00  0.3000E+01  0.3000E+01
    -10.658  0.0000E+00  0.0000E+00  0.3000E+01  0.3000E+01
    -10.385  0.0000E+00  0.0000E+00  0.3000E+01  0.3000E+01
    -10.112  0.0000E+00  0.0000E+00  0.3000E+01  0.3000E+01
     -9.839  0.0000E+00  0.0000E+00  0.3000E+01  0.3000E+01
     -9.567  0.0000E+00  0.0000E+00  0.3000E+01  0.3000E+01
     -9.294  0.0000E+00  0.0000E+00  0.3000E+01  0.3000E+01
     -9.021  0.0000E+00  0.0000E+00  0.3000E+01  0.3000E+01
     -8.748  0.0000E+00  0.0000E+00  0.3000E+01  0.3000E+01
     -8.475  0.0000E+00  0.0000E+00  0.3000E+01  0.3000E+01
     -8.203  0.0000E+00  0.0000E+00  0.3000E+01  0.3000E+01
     -7.930  0.0000E+00  0.0000E+00  0.3000E+01  0.3000E+01
     -7.657  0.0000E+00  0.0000E+00  0.3000E+01  0.3000E+01
     -7.384  0.0000E+00  0.0000E+00  0.3000E+01  0.3000E+01
     -7.111  0.0000E+00  0.0000E+00  0.3000E+01  0.3000E+01
     -6.839  0.0000E+00  0.0000E+00  0.3000E+01  0.3000E+01
     -6.566  0.0000E+00  0.0000E+00  0.3000E+01  0.3000E+01
     -6.293  0.0000E+00  0.0000E+00  0.3000E+01  0.3000E+01
     -6.020  0.0000E+00  0.0000E+00  0.3000E+01  0.3000E+01
     -5.747  0.0000E+00  0.0000E+00  0.3000E+01  0.3000E+01
     -5.475  0.0000E+00  0.0000E+00  0.3000E+01  0.3000E+01
     -5.202  0.0000E+00  0.0000E+00  0.3000E+01  0.3000E+01
     -4.929  0.0000E+00  0.0000E+00  0.3000E+01  0.3000E+01
     -4.656  0.0000E+00  0.0000E+00  0.3000E+01  0.3000E+01
     -4.383  0.0000E+00  0.0000E+00  0.3000E+01  0.3000E+01
     -4.111  0.0000E+00  0.0000E+00  0.3000E+01  0.3000E+01
     -3.838  0.0000E+00  0.0000E+00  0.3000E+01  0.3000E+01
     -3.565  0.0000E+00  0.0000E+00  0.3000E+01  0.3000E+01
     -3.292  0.0000E+00  0.0000E+00  0.3000E+01  0.3000E+01
     -3.019  0.0000E+00  0.0000E+00  0.3000E+01  0.3000E+01
     -2.747  0.0000E+00  0.0000E+00  0.3000E+01  0.3000E+01
     -2.474  0.8878E-01  0.8878E-01  0.3009E+01  0.3009E+01
     -2.201  0.1683E+00  0.1683E+00  0.3045E+01  0.3045E+01
     -1.928  0.2195E+00  0.2195E+00  0.3098E+01  0.3098E+01
     -1.655  0.2660E+00  0.2660E+00  0.3165E+01  0.3165E+01
     -1.383  0.2977E+00  0.2977E+00  0.3242E+01  0.3242E+01
     -1.110  0.3321E+00  0.3321E+00  0.3324E+01  0.3324E+01
     -0.837  0.3586E+00  0.3586E+00  0.3420E+01  0.3420E+01
     -0.564  0.3610E+00  0.3610E+00  0.3518E+01  0.3518E+01
     -0.291  0.3647E+00  0.3647E+00  0.3619E+01  0.3619E+01
     -0.019  0.4392E+00  0.4392E+00  0.3730E+01  0.3730E+01
      0.254  0.4564E+00  0.4564E+00  0.3854E+01  0.3854E+01
      0.527  0.4651E+00  0.4651E+00  0.3977E+01  0.3977E+01
      0.800  0.4950E+00  0.4950E+00  0.4107E+01  0.4107E+01
      1.073  0.6073E+00  0.6073E+00  0.4254E+01  0.4254E+01
      1.345  0.6711E+00  0.6711E+00  0.4431E+01  0.4431E+01
      1.618  0.5973E+00  0.5973E+00  0.4614E+01  0.4614E+01
      1.891  0.5342E+00  0.5342E+00  0.4765E+01  0.4765E+01
      2.164  0.5783E+00  0.5783E+00  0.4920E+01  0.4920E+01
      2.437  0.6100E+00  0.6100E+00  0.5072E+01  0.5072E+01
      2.709  0.6426E+00  0.6426E+00  0.5240E+01  0.5240E+01
      2.982  0.7336E+00  0.7336E+00  0.5430E+01  0.5430E+01
      3.255  0.7468E+00  0.7468E+00  0.5635E+01  0.5635E+01
      3.528  0.8183E+00  0.8183E+00  0.5845E+01  0.5845E+01
      3.801  0.9904E+00  0.9904E+00  0.6104E+01  0.6104E+01
      4.073  0.1031E+01  0.1031E+01  0.6380E+01  0.6380E+01
      4.346  0.9171E+00  0.9171E+00  0.6641E+01  0.6641E+01
      4.619  0.9972E+00  0.9972E+00  0.6889E+01  0.6889E+01
      4.892  0.1099E+01  0.1099E+01  0.7179E+01  0.7179E+01
      5.165  0.1155E+01  0.1155E+01  0.7488E+01  0.7488E+01
      5.437  0.1495E+01  0.1495E+01  0.7850E+01  0.7850E+01
      5.710  0.2217E+01  0.2217E+01  0.8388E+01  0.8388E+01
      5.983  0.3298E+01  0.3298E+01  0.9113E+01  0.9113E+01
      6.256  0.3248E+01  0.3248E+01  0.1009E+02  0.1009E+02
      6.528  0.2802E+01  0.2802E+01  0.1072E+02  0.1072E+02
      6.801  0.4550E+01  0.4550E+01  0.1154E+02  0.1154E+02
      7.074  0.1641E+01  0.1641E+01  0.1222E+02  0.1222E+02
      7.347  0.1182E+01  0.1182E+01  0.1262E+02  0.1262E+02
      7.620  0.1079E+01  0.1079E+01  0.1293E+02  0.1293E+02
      7.892  0.1264E+01  0.1264E+01  0.1324E+02  0.1324E+02
      8.165  0.1230E+01  0.1230E+01  0.1362E+02  0.1362E+02
      8.438  0.9061E+00  0.9061E+00  0.1391E+02  0.1391E+02
      8.711  0.7805E+00  0.7805E+00  0.1413E+02  0.1413E+02
      8.984  0.8398E+00  0.8398E+00  0.1435E+02  0.1435E+02
      9.256  0.9010E+00  0.9010E+00  0.1459E+02  0.1459E+02
      9.529  0.9604E+00  0.9604E+00  0.1484E+02  0.1484E+02
      9.802  0.9696E+00  0.9696E+00  0.1513E+02  0.1513E+02
     10.075  0.1012E+01  0.1012E+01  0.1538E+02  0.1538E+02
     10.348  0.1032E+01  0.1032E+01  0.1571E+02  0.1571E+02
     10.620  0.1119E+01  0.1119E+01  0.1599E+02  0.1599E+02
     10.893  0.1017E+01  0.1017E+01  0.1627E+02  0.1627E+02
     11.166  0.1060E+01  0.1060E+01  0.1656E+02  0.1656E+02
     11.439  0.1031E+01  0.1031E+01  0.1685E+02  0.1685E+02
     11.712  0.9784E+00  0.9784E+00  0.1712E+02  0.1712E+02
     11.984  0.1012E+01  0.1012E+01  0.1739E+02  0.1739E+02
     12.257  0.1017E+01  0.1017E+01  0.1767E+02  0.1767E+02
     12.530  0.1131E+01  0.1131E+01  0.1796E+02  0.1796E+02
     12.803  0.1086E+01  0.1086E+01  0.1826E+02  0.1826E+02
     13.076  0.1161E+01  0.1161E+01  0.1857E+02  0.1857E+02
     13.348  0.1168E+01  0.1168E+01  0.1889E+02  0.1889E+02
     13.621  0.1123E+01  0.1123E+01  0.1920E+02  0.1920E+02
     13.894  0.1155E+01  0.1155E+01  0.1951E+02  0.1951E+02
     14.167  0.1145E+01  0.1145E+01  0.1982E+02  0.1982E+02
     14.440  0.1295E+01  0.1295E+01  0.2015E+02  0.2015E+02
     14.712  0.1280E+01  0.1280E+01  0.2051E+02  0.2051E+02
     14.985  0.1289E+01  0.1289E+01  0.2086E+02  0.2086E+02
     15.258  0.1256E+01  0.1256E+01  0.2121E+02  0.2121E+02
     15.531  0.1222E+01  0.1222E+01  0.2154E+02  0.2154E+02
     15.804  0.1165E+01  0.1165E+01  0.2187E+02  0.2187E+02
     16.076  0.1153E+01  0.1153E+01  0.2219E+02  0.2219E+02
     16.349  0.1141E+01  0.1141E+01  0.2250E+02  0.2250E+02
     16.622  0.1053E+01  0.1053E+01  0.2280E+02  0.2280E+02
     16.895  0.8941E+00  0.8941E+00  0.2306E+02  0.2306E+02
     17.168  0.9178E+00  0.9178E+00  0.2330E+02  0.2330E+02
     17.440  0.6767E+00  0.6767E+00  0.2351E+02  0.2351E+02
     17.713  0.5784E+00  0.5784E+00  0.2368E+02  0.2368E+02
     17.986  0.3877E+00  0.3877E+00  0.2381E+02  0.2381E+02
     18.259  0.2785E+00  0.2785E+00  0.2390E+02  0.2390E+02
     18.532  0.1952E+00  0.1952E+00  0.2397E+02  0.2397E+02
     18.804  0.3950E-01  0.3950E-01  0.2400E+02  0.2400E+02
     19.077  0.8977E-03  0.8977E-03  0.2400E+02  0.2400E+02
     19.350  0.0000E+00  0.0000E+00  0.2400E+02  0.2400E+02
     19.623  0.0000E+00  0.0000E+00  0.2400E+02  0.2400E+02
     19.896  0.0000E+00  0.0000E+00  0.2400E+02  0.2400E+02
     20.168  0.0000E+00  0.0000E+00  0.2400E+02  0.2400E+02
     20.441  0.0000E+00  0.0000E+00  0.2400E+02  0.2400E+02
     20.714  0.0000E+00  0.0000E+00  0.2400E+02  0.2400E+02
     20.987  0.0000E+00  0.0000E+00  0.2400E+02  0.2400E+02
     21.260  0.0000E+00  0.0000E+00  0.2400E+02  0.2400E+02
     21.532  0.0000E+00  0.0000E+00  0.2400E+02  0.2400E+02
     21.805  0.0000E+00  0.0000E+00  0.2400E+02  0.2400E+02
     22.078  0.0000E+00  0.0000E+00  0.2400E+02  0.2400E+02
     22.351  0.0000E+00  0.0000E+00  0.2400E+02  0.2400E+02
     22.624  0.0000E+00  0.0000E+00  0.2400E+02  0.2400E+02
     22.896  0.0000E+00  0.0000E+00  0.2400E+02  0.2400E+02
