 running on   24 total cores
 distrk:  each k-point on   24 cores,    1 groups
 distr:  one band on    6 cores,    4 groups
 using from now: INCAR     
 vasp.5.4.4.18Apr17-6-g9f103f2a35 (build Jan 03 2018 06:08:52) complex          
  
 POSCAR found :  2 types and       5 ions
 scaLAPACK will be used
 WARNING: for PREC=h ENMAX is automatically increase by 25 %
        this was not the case for versions prior to vasp.4.4
 WARNING: for PREC=h ENMAX is automatically increase by 25 %
        this was not the case for versions prior to vasp.4.4
 LDA part: xc-table for Pade appr. of Perdew
 POSCAR, INCAR and KPOINTS ok, starting setup
 FFT: planning ...
 WAVECAR not read
 entering main loop
       N       E                     dE             d eps       ncg     rms          rms(c)
DAV:   1     0.138428041384E+03    0.13843E+03   -0.14266E+04  8072   0.102E+03
DAV:   2    -0.166359140304E+02   -0.15506E+03   -0.14558E+03  7696   0.272E+02
DAV:   3    -0.215340271590E+02   -0.48981E+01   -0.47994E+01  8848   0.528E+01
DAV:   4    -0.216241347244E+02   -0.90108E-01   -0.90051E-01  7936   0.765E+00
DAV:   5    -0.216270329696E+02   -0.28982E-02   -0.28982E-02  8928   0.137E+00    0.252E+01
DAV:   6    -0.445780081275E+02   -0.22951E+02   -0.25569E+02  8192   0.200E+02    0.346E+01
DAV:   7    -0.213375257770E+02    0.23240E+02   -0.48860E+01  8856   0.899E+01    0.135E+01
DAV:   8    -0.188168994015E+02    0.25206E+01   -0.96557E+00  9680   0.487E+01    0.198E+00
DAV:   9    -0.188475442514E+02   -0.30645E-01   -0.70557E-01  8608   0.805E+00    0.176E+00
DAV:  10    -0.188541939053E+02   -0.66497E-02   -0.15547E-02  9616   0.110E+00    0.135E+00
DAV:  11    -0.188420478597E+02    0.12146E-01   -0.15003E-01  9096   0.457E+00    0.696E-01
DAV:  12    -0.188397659298E+02    0.22819E-02   -0.67937E-03  8160   0.744E-01    0.474E-01
DAV:  13    -0.188375963839E+02    0.21695E-02   -0.11050E-02  9272   0.117E+00    0.618E-02
DAV:  14    -0.188376024619E+02   -0.60780E-05   -0.33145E-04  7736   0.147E-01    0.203E-02
DAV:  15    -0.188376003616E+02    0.21003E-05   -0.12460E-05 11040   0.356E-02    0.684E-03
DAV:  16    -0.188375995399E+02    0.82171E-06   -0.86645E-07  8800   0.907E-03    0.460E-03
DAV:  17    -0.188375991107E+02    0.42921E-06   -0.14724E-06  9424   0.133E-02    0.200E-03
DAV:  18    -0.188375990565E+02    0.54148E-07   -0.88806E-08  7800   0.324E-03    0.772E-04
DAV:  19    -0.188375990750E+02   -0.18440E-07   -0.29496E-08  4832   0.195E-03    0.178E-04
DAV:  20    -0.188375990769E+02   -0.19313E-08   -0.29999E-09  4080   0.572E-04
   1 F= -.18837599E+02 E0= -.18837651E+02  d E =-.188376E+02  mag=     0.0000
 curvature:   0.00 expect dE= 0.000E+00 dE for cont linesearch  0.000E+00
 trial: gam= 0.00000 g(F)=  0.274E+00 g(S)=  0.115E+02 ort = 0.000E+00 (trialstep = 0.100E+01)
 search vector abs. value=  0.118E+02
 bond charge predicted
       N       E                     dE             d eps       ncg     rms          rms(c)
DAV:   1    -0.148771767931E+03   -0.12993E+03   -0.24831E+03  6928   0.713E+02    0.775E+01
DAV:   2    -0.286249990246E+02    0.12015E+03   -0.52318E+02  7936   0.181E+02    0.118E+01
DAV:   3    -0.324805145829E+02   -0.38555E+01   -0.12021E+02  8240   0.835E+01    0.274E+01
DAV:   4    -0.248503581875E+02    0.76302E+01   -0.54530E+01  8512   0.898E+01    0.272E+01
DAV:   5    -0.206538465796E+02    0.41965E+01   -0.34436E+01  8240   0.350E+01    0.503E+00
DAV:   6    -0.214526379228E+02   -0.79879E+00   -0.33439E+00  8560   0.170E+01    0.108E+01
DAV:   7    -0.203359567254E+02    0.11167E+01   -0.13278E+00  8352   0.141E+01    0.497E+00
DAV:   8    -0.201351890281E+02    0.20077E+00   -0.36841E-01 10328   0.419E+00    0.248E+00
DAV:   9    -0.200772103337E+02    0.57979E-01   -0.22691E-01 10648   0.338E+00    0.204E-01
DAV:  10    -0.200795902335E+02   -0.23799E-02   -0.11993E-02  7832   0.840E-01    0.450E-01
DAV:  11    -0.200776622277E+02    0.19280E-02   -0.10246E-02  9360   0.676E-01    0.692E-02
DAV:  12    -0.200777784461E+02   -0.11622E-03   -0.12552E-03  8328   0.293E-01    0.116E-01
DAV:  13    -0.200777004194E+02    0.78027E-04   -0.11043E-04  9464   0.660E-02    0.707E-02
DAV:  14    -0.200776591698E+02    0.41250E-04   -0.22126E-04  9760   0.927E-02    0.368E-03
DAV:  15    -0.200776598545E+02   -0.68471E-06   -0.64923E-06  7536   0.143E-02    0.218E-03
DAV:  16    -0.200776598519E+02    0.25893E-08   -0.14101E-07  9888   0.228E-03    0.852E-04
DAV:  17    -0.200776598647E+02   -0.12779E-07   -0.27476E-08  4632   0.118E-03    0.105E-04
DAV:  18    -0.200776598664E+02   -0.17048E-08   -0.33803E-09  4232   0.393E-04
   2 F= -.20077660E+02 E0= -.20077567E+02  d E =-.124006E+01  mag=    -0.0000
 trial-energy change:   -1.240061  1 .order   -2.058681  -11.754579    7.637216
 step:   0.5433(harm=  0.6062)  dis= 0.02930  next Energy=   -21.899529 (dE=-0.306E+01)
 bond charge predicted
       N       E                     dE             d eps       ncg     rms          rms(c)
DAV:   1    -0.104096122581E+03   -0.84018E+02   -0.71757E+02  8592   0.279E+02    0.858E+01
DAV:   2    -0.187562528837E+03   -0.83466E+02   -0.16254E+03 12320   0.303E+02    0.936E+01
DAV:   3    -0.398432589214E+02    0.14772E+03   -0.91059E+02  9600   0.176E+02    0.261E+01
DAV:   4    -0.322330167842E+02    0.76102E+01   -0.50916E+01  7984   0.516E+01    0.179E+01
DAV:   5    -0.250969189107E+02    0.71361E+01   -0.59649E+00  8896   0.304E+01    0.118E+01
DAV:   6    -0.227653271532E+02    0.23316E+01   -0.21273E+01  9728   0.554E+01    0.146E+01
DAV:   7    -0.218000154503E+02    0.96531E+00   -0.32577E+00  8576   0.152E+01    0.477E+00
DAV:   8    -0.216257408579E+02    0.17427E+00   -0.82186E-01 10000   0.654E+00    0.769E-01
DAV:   9    -0.216294932051E+02   -0.37523E-02   -0.13037E-01 10544   0.236E+00    0.169E+00
DAV:  10    -0.216077009639E+02    0.21792E-01   -0.58548E-02  8208   0.261E+00    0.553E-01
DAV:  11    -0.216052774128E+02    0.24236E-02   -0.15225E-02 10464   0.113E+00    0.102E-01
DAV:  12    -0.216053069574E+02   -0.29545E-04   -0.12449E-03  8576   0.334E-01    0.110E-01
DAV:  13    -0.216059331259E+02   -0.62617E-03   -0.16375E-03 10096   0.328E-01    0.313E-01
DAV:  14    -0.216051968992E+02    0.73623E-03   -0.25819E-03  8384   0.486E-01    0.438E-02
DAV:  15    -0.216051965022E+02    0.39692E-06   -0.56005E-05  7792   0.403E-02    0.323E-02
DAV:  16    -0.216051885005E+02    0.80017E-05   -0.68547E-05  9424   0.732E-02    0.123E-02
DAV:  17    -0.216051878318E+02    0.66873E-06   -0.53433E-06  8536   0.213E-02    0.204E-03
DAV:  18    -0.216051878818E+02   -0.50069E-07   -0.18005E-07 10560   0.317E-03    0.506E-04
DAV:  19    -0.216051879157E+02   -0.33818E-07   -0.13215E-08  4064   0.107E-03    0.801E-05
DAV:  20    -0.216051879178E+02   -0.21846E-08   -0.33991E-09  3968   0.437E-04
   3 F= -.21605188E+02 E0= -.21605065E+02  d E =-.276759E+01  mag=    -0.0000
 curvature:  -0.30 expect dE=-0.417E-01 dE for cont linesearch -0.759E-03
 ZBRENT: interpolating
 opt :   0.5354  next Energy=   -21.605876 (dE=-0.277E+01)
 bond charge predicted
       N       E                     dE             d eps       ncg     rms          rms(c)
DAV:   1    -0.216336304895E+02   -0.28443E-01   -0.22816E-01  7872   0.550E+00    0.209E+00
DAV:   2    -0.219200809932E+02   -0.28645E+00   -0.26986E+00  8432   0.160E+01    0.564E+00
DAV:   3    -0.216049264225E+02    0.31515E+00   -0.11853E+00  8256   0.130E+01    0.279E-01
DAV:   4    -0.216063071879E+02   -0.13808E-02   -0.30953E-02  8096   0.976E-01    0.249E-01
DAV:   5    -0.216060213643E+02    0.28582E-03   -0.33271E-03  8512   0.571E-01    0.870E-02
DAV:   6    -0.216059543331E+02    0.67031E-04   -0.31806E-04  9184   0.171E-01    0.857E-03
DAV:   7    -0.216059543359E+02   -0.27994E-08   -0.17081E-05  8544   0.323E-02    0.111E-02
DAV:   8    -0.216059538576E+02    0.47836E-06   -0.10587E-06  9408   0.819E-03    0.510E-03
DAV:   9    -0.216059535838E+02    0.27375E-06   -0.12843E-06  9800   0.963E-03    0.649E-04
DAV:  10    -0.216059535586E+02    0.25247E-07   -0.45838E-08  7568   0.129E-03    0.498E-04
DAV:  11    -0.216059535445E+02    0.14079E-07   -0.40581E-09  4256   0.472E-04    0.178E-04
DAV:  12    -0.216059535388E+02    0.57398E-08   -0.17415E-09  3968   0.269E-04
   4 F= -.21605954E+02 E0= -.21605826E+02  d E =-.276835E+01  mag=     0.0000
 curvature:  -0.27 expect dE=-0.363E-01 dE for cont linesearch -0.376E-04
 ZBRENT: interpolating
 opt :   0.5330  next Energy=   -21.606003 (dE=-0.277E+01)
 bond charge predicted
       N       E                     dE             d eps       ncg     rms          rms(c)
DAV:   1    -0.216085293415E+02   -0.25758E-02   -0.20910E-02  7872   0.168E+00    0.626E-01
DAV:   2    -0.216367874090E+02   -0.28258E-01   -0.24457E-01  8432   0.481E+00    0.190E+00
DAV:   3    -0.216058995818E+02    0.30888E-01   -0.14035E-01  8304   0.388E+00    0.521E-02
DAV:   4    -0.216060240047E+02   -0.12442E-03   -0.18973E-03  7648   0.215E-01    0.704E-02
DAV:   5    -0.216059958911E+02    0.28114E-04   -0.17360E-04  8960   0.127E-01    0.774E-03
DAV:   6    -0.216059953723E+02    0.51879E-06   -0.64860E-06  8656   0.237E-02    0.309E-03
DAV:   7    -0.216059952757E+02    0.96564E-07   -0.31962E-07  8992   0.376E-03    0.144E-03
DAV:   8    -0.216059952496E+02    0.26134E-07   -0.40541E-08  5728   0.155E-03    0.294E-04
DAV:   9    -0.216059952309E+02    0.18690E-07   -0.11267E-08  4576   0.663E-04    0.147E-04
DAV:  10    -0.216059952242E+02    0.67384E-08   -0.15963E-09  3920   0.417E-04
   5 F= -.21605995E+02 E0= -.21605866E+02  d E =-.276840E+01  mag=    -0.0000
 curvature:  -0.35 expect dE=-0.471E-01 dE for cont linesearch -0.125E-07
 trial: gam= 0.01140 g(F)=  0.580E-01 g(S)=  0.767E-01 ort = 0.649E-03 (trialstep = 0.907E+00)
 search vector abs. value=  0.136E+00
 bond charge predicted
       N       E                     dE             d eps       ncg     rms          rms(c)
DAV:   1    -0.218990592512E+02   -0.29306E+00   -0.50489E+00  8176   0.172E+01    0.429E+00
DAV:   2    -0.222592751198E+02   -0.36022E+00   -0.47994E+00  8400   0.216E+01    0.724E+00
DAV:   3    -0.217121655280E+02    0.54711E+00   -0.22072E+00  8384   0.190E+01    0.121E+00
DAV:   4    -0.216973405822E+02    0.14825E-01   -0.11005E-01  8624   0.200E+00    0.710E-01
DAV:   5    -0.216938218538E+02    0.35187E-02   -0.34876E-02  8704   0.179E+00    0.227E-01
DAV:   6    -0.216934156409E+02    0.40621E-03   -0.28230E-03  8896   0.511E-01    0.280E-02
DAV:   7    -0.216934290853E+02   -0.13444E-04   -0.93885E-05  9040   0.745E-02    0.217E-02
DAV:   8    -0.216934278156E+02    0.12698E-05   -0.21633E-05  9792   0.431E-02    0.424E-03
DAV:   9    -0.216934277062E+02    0.10934E-06   -0.94728E-07  8544   0.829E-03    0.120E-03
DAV:  10    -0.216934276536E+02    0.52641E-07   -0.69406E-08  8448   0.229E-03    0.358E-04
DAV:  11    -0.216934276456E+02    0.79203E-08   -0.43394E-09  4560   0.571E-04
   6 F= -.21693428E+02 E0= -.21693637E+02  d E =-.874324E-01  mag=    -0.0000
 trial-energy change:   -0.087432  1 .order   -0.086907   -0.122118   -0.051697
 step:   1.5256(harm=  1.5721)  dis= 0.04382  next Energy=   -21.711242 (dE=-0.105E+00)
 bond charge predicted
       N       E                     dE             d eps       ncg     rms          rms(c)
DAV:   1    -0.218066250567E+02   -0.11320E+00   -0.23585E+00  8336   0.120E+01    0.285E+00
DAV:   2    -0.219564908735E+02   -0.14987E+00   -0.20649E+00  8368   0.147E+01    0.490E+00
DAV:   3    -0.217216126612E+02    0.23488E+00   -0.10842E+00  8272   0.126E+01    0.914E-01
DAV:   4    -0.217120428334E+02    0.95698E-02   -0.48993E-02  8912   0.147E+00    0.363E-01
DAV:   5    -0.217111958724E+02    0.84696E-03   -0.94756E-03  8768   0.977E-01    0.119E-01
DAV:   6    -0.217111017190E+02    0.94153E-04   -0.12567E-03  8848   0.359E-01    0.403E-02
DAV:   7    -0.217110894380E+02    0.12281E-04   -0.75244E-05  9584   0.848E-02    0.635E-03
DAV:   8    -0.217110899904E+02   -0.55239E-06   -0.36010E-06  9456   0.116E-02    0.313E-03
DAV:   9    -0.217110898775E+02    0.11294E-06   -0.32226E-07  8512   0.542E-03    0.870E-04
DAV:  10    -0.217110898375E+02    0.39929E-07   -0.23913E-08  5408   0.130E-03    0.208E-04
DAV:  11    -0.217110898307E+02    0.68926E-08   -0.59113E-09  4176   0.576E-04
   7 F= -.21711090E+02 E0= -.21711145E+02  d E =-.105095E+00  mag=    -0.0000
 curvature:  -0.79 expect dE=-0.201E-01 dE for cont linesearch -0.652E-08
 trial: gam= 0.19555 g(F)=  0.141E-01 g(S)=  0.112E-01 ort =-0.335E-04 (trialstep = 0.103E+01)
 search vector abs. value=  0.306E-01
 bond charge predicted
       N       E                     dE             d eps       ncg     rms          rms(c)
DAV:   1    -0.217525240281E+02   -0.41434E-01   -0.50908E-01  7376   0.615E+00    0.142E+00
DAV:   2    -0.218455855566E+02   -0.93062E-01   -0.93059E-01  8592   0.101E+01    0.384E+00
DAV:   3    -0.217334688497E+02    0.11212E+00   -0.67136E-01  8368   0.789E+00    0.432E-01
DAV:   4    -0.217315488989E+02    0.19200E-02   -0.13564E-02  8512   0.997E-01    0.503E-02
DAV:   5    -0.217315561848E+02   -0.72859E-05   -0.46925E-04  8576   0.186E-01    0.222E-02
DAV:   6    -0.217315519863E+02    0.41985E-05   -0.19499E-05  9520   0.406E-02    0.121E-02
DAV:   7    -0.217315515526E+02    0.43371E-06   -0.41045E-06  8848   0.203E-02    0.180E-03
DAV:   8    -0.217315516176E+02   -0.65026E-07   -0.19373E-07  8160   0.357E-03    0.530E-04
DAV:   9    -0.217315516446E+02   -0.26977E-07   -0.91268E-09  5136   0.986E-04    0.960E-05
DAV:  10    -0.217315516503E+02   -0.57189E-08   -0.16916E-09  4352   0.347E-04
   8 F= -.21731552E+02 E0= -.21731660E+02  d E =-.204618E-01  mag=    -0.0000
 trial-energy change:   -0.020462  1 .order   -0.020513   -0.026128   -0.014898
 step:   2.4939(harm=  2.3972)  dis= 0.04514  next Energy=   -21.741985 (dE=-0.309E-01)
 bond charge predicted
       N       E                     dE             d eps       ncg     rms          rms(c)
DAV:   1    -0.217833174591E+02   -0.51766E-01   -0.10151E+00  7408   0.869E+00    0.197E+00
DAV:   2    -0.219608496881E+02   -0.17753E+00   -0.17662E+00  8672   0.142E+01    0.546E+00
DAV:   3    -0.217464344092E+02    0.21442E+00   -0.13722E+00  8432   0.109E+01    0.647E-01
DAV:   4    -0.217420111295E+02    0.44233E-02   -0.28864E-02  8784   0.151E+00    0.544E-02
DAV:   5    -0.217420409996E+02   -0.29870E-04   -0.92552E-04  8464   0.238E-01    0.293E-02
DAV:   6    -0.217420345388E+02    0.64608E-05   -0.36867E-05  9360   0.562E-02    0.180E-02
DAV:   7    -0.217420333834E+02    0.11554E-05   -0.89783E-06  9312   0.311E-02    0.256E-03
DAV:   8    -0.217420334752E+02   -0.91830E-07   -0.47678E-07  8304   0.574E-03    0.831E-04
DAV:   9    -0.217420335166E+02   -0.41345E-07   -0.22373E-08  5648   0.150E-03    0.125E-04
DAV:  10    -0.217420335243E+02   -0.77571E-08   -0.34844E-09  4480   0.529E-04
   9 F= -.21742034E+02 E0= -.21742075E+02  d E =-.309437E-01  mag=     0.0000
 curvature:  -1.44 expect dE=-0.161E-01 dE for cont linesearch -0.379E-06
 trial: gam= 0.44263 g(F)=  0.104E-01 g(S)=  0.801E-03 ort = 0.898E-04 (trialstep = 0.132E+01)
 search vector abs. value=  0.173E-01
 bond charge predicted
       N       E                     dE             d eps       ncg     rms          rms(c)
DAV:   1    -0.217624571286E+02   -0.20424E-01   -0.24092E-01  7104   0.412E+00    0.106E+00
DAV:   2    -0.218151152407E+02   -0.52658E-01   -0.54755E-01  8728   0.779E+00    0.253E+00
DAV:   3    -0.217536023930E+02    0.61513E-01   -0.28562E-01  8344   0.616E+00    0.153E-01
DAV:   4    -0.217537803292E+02   -0.17794E-03   -0.62346E-03  7880   0.419E-01    0.133E-01
DAV:   5    -0.217536521621E+02    0.12817E-03   -0.85540E-04  8968   0.295E-01    0.134E-02
DAV:   6    -0.217536518426E+02    0.31956E-06   -0.27920E-05  8296   0.466E-02    0.529E-03
DAV:   7    -0.217536518860E+02   -0.43372E-07   -0.23811E-06  9608   0.114E-02    0.216E-03
DAV:   8    -0.217536518339E+02    0.52042E-07   -0.24805E-07  8600   0.471E-03    0.593E-04
DAV:   9    -0.217536517795E+02    0.54457E-07   -0.30768E-08  7376   0.129E-03    0.155E-04
DAV:  10    -0.217536517748E+02    0.46848E-08   -0.50147E-09  4176   0.478E-04
  10 F= -.21753652E+02 E0= -.21753762E+02  d E =-.116183E-01  mag=     0.0000
 trial-energy change:   -0.011618  1 .order   -0.011604   -0.014905   -0.008302
 step:   2.9867(harm=  2.9867)  dis= 0.03703  next Energy=   -21.758857 (dE=-0.168E-01)
 bond charge predicted
       N       E                     dE             d eps       ncg     rms          rms(c)
DAV:   1    -0.217728981183E+02   -0.19246E-01   -0.38081E-01  7120   0.519E+00    0.135E+00
DAV:   2    -0.218581741459E+02   -0.85276E-01   -0.88133E-01  8736   0.994E+00    0.318E+00
DAV:   3    -0.217587046433E+02    0.99470E-01   -0.44226E-01  8352   0.788E+00    0.183E-01
DAV:   4    -0.217591028024E+02   -0.39816E-03   -0.10939E-02  8080   0.576E-01    0.190E-01
DAV:   5    -0.217588383661E+02    0.26444E-03   -0.18534E-03  8896   0.437E-01    0.235E-02
DAV:   6    -0.217588353486E+02    0.30174E-05   -0.71936E-05  8992   0.806E-02    0.706E-03
DAV:   7    -0.217588352458E+02    0.10281E-06   -0.35622E-06  9192   0.135E-02    0.246E-03
DAV:   8    -0.217588353081E+02   -0.62260E-07   -0.27607E-07  8304   0.418E-03    0.766E-04
DAV:   9    -0.217588352447E+02    0.63380E-07   -0.49405E-08  7560   0.164E-03    0.216E-04
DAV:  10    -0.217588352322E+02    0.12530E-07   -0.40896E-09  4560   0.434E-04    0.561E-05
DAV:  11    -0.217588352312E+02    0.94951E-09   -0.64127E-10  4120   0.205E-04
  11 F= -.21758835E+02 E0= -.21759000E+02  d E =-.168017E-01  mag=    -0.0000
 curvature:  -2.29 expect dE=-0.139E-01 dE for cont linesearch -0.682E-06
 trial: gam= 0.58625 g(F)=  0.251E-02 g(S)=  0.356E-02 ort =-0.717E-04 (trialstep = 0.166E+01)
 search vector abs. value=  0.119E-01
 bond charge predicted
       N       E                     dE             d eps       ncg     rms          rms(c)
DAV:   1    -0.219181054788E+02   -0.15927E+00   -0.18053E+00  8592   0.153E+01    0.432E+00
DAV:   2    -0.230518030247E+02   -0.11337E+01   -0.98967E+00  8640   0.331E+01    0.145E+01
DAV:   3    -0.217726837855E+02    0.12791E+01   -0.87844E+00  8240   0.240E+01    0.134E+00
DAV:   4    -0.217627984343E+02    0.98854E-02   -0.10762E-01  7824   0.271E+00    0.516E-01
DAV:   5    -0.217605637628E+02    0.22347E-02   -0.10337E-02 10960   0.963E-01    0.518E-02
DAV:   6    -0.217605224391E+02    0.41324E-04   -0.51547E-04  8112   0.253E-01    0.566E-02
DAV:   7    -0.217604934101E+02    0.29029E-04   -0.80941E-05 10768   0.811E-02    0.954E-03
DAV:   8    -0.217604934095E+02    0.54661E-09   -0.63203E-06  9872   0.203E-02    0.378E-03
DAV:   9    -0.217604934174E+02   -0.79381E-08   -0.50055E-07  8784   0.773E-03    0.866E-04
DAV:  10    -0.217604934490E+02   -0.31528E-07   -0.17799E-08  5128   0.107E-03    0.372E-04
DAV:  11    -0.217604934603E+02   -0.11285E-07   -0.48458E-09  4648   0.510E-04    0.107E-04
DAV:  12    -0.217604934605E+02   -0.23965E-09   -0.84392E-10  4088   0.288E-04
  12 F= -.21760493E+02 E0= -.21760750E+02  d E =-.165823E-02  mag=     0.0000
 trial-energy change:   -0.001658  1 .order   -0.001756   -0.009983    0.006470
 step:   0.9904(harm=  1.0047)  dis= 0.00774  next Energy=   -21.761800 (dE=-0.296E-02)
 bond charge predicted
       N       E                     dE             d eps       ncg     rms          rms(c)
DAV:   1    -0.217888221237E+02   -0.28329E-01   -0.29523E-01  8608   0.607E+00    0.191E+00
DAV:   2    -0.219760308188E+02   -0.18721E+00   -0.19025E+00  8352   0.146E+01    0.462E+00
DAV:   3    -0.217611184831E+02    0.21491E+00   -0.86428E-01  8224   0.114E+01    0.219E-01
DAV:   4    -0.217626850675E+02   -0.15666E-02   -0.26520E-02  8480   0.986E-01    0.344E-01
DAV:   5    -0.217618043998E+02    0.88067E-03   -0.53603E-03  8656   0.746E-01    0.246E-02
DAV:   6    -0.217618031368E+02    0.12630E-05   -0.11611E-04  8368   0.862E-02    0.798E-03
DAV:   7    -0.217618028597E+02    0.27713E-06   -0.52608E-06  8480   0.238E-02    0.338E-03
DAV:   8    -0.217618027859E+02    0.73851E-07   -0.68621E-07  9856   0.770E-03    0.122E-03
DAV:   9    -0.217618027046E+02    0.81278E-07   -0.48910E-08  7968   0.186E-03    0.502E-04
DAV:  10    -0.217618026796E+02    0.24996E-07   -0.76178E-09  4528   0.758E-04    0.109E-04
DAV:  11    -0.217618026752E+02    0.43315E-08   -0.15249E-09  4288   0.270E-04
  13 F= -.21761803E+02 E0= -.21762031E+02  d E =-.296744E-02  mag=     0.0000
 curvature:  -0.99 expect dE=-0.881E-03 dE for cont linesearch -0.299E-08
 trial: gam= 0.15186 g(F)=  0.437E-03 g(S)=  0.450E-03 ort =-0.599E-05 (trialstep = 0.152E+01)
 search vector abs. value=  0.116E-02
 bond charge predicted
       N       E                     dE             d eps       ncg     rms          rms(c)
DAV:   1    -0.217860684711E+02   -0.24266E-01   -0.22545E-01  8208   0.562E+00    0.184E+00
DAV:   2    -0.219673719293E+02   -0.18130E+00   -0.18332E+00  8352   0.143E+01    0.452E+00
DAV:   3    -0.217612086934E+02    0.20616E+00   -0.83279E-01  8240   0.112E+01    0.158E-01
DAV:   4    -0.217628565734E+02   -0.16479E-02   -0.23432E-02  8432   0.914E-01    0.316E-01
DAV:   5    -0.217621300074E+02    0.72657E-03   -0.41330E-03  8584   0.663E-01    0.165E-02
DAV:   6    -0.217621313965E+02   -0.13891E-05   -0.81856E-05  8464   0.694E-02    0.776E-03
DAV:   7    -0.217621309640E+02    0.43255E-06   -0.27959E-06  8424   0.125E-02    0.399E-03
DAV:   8    -0.217621308193E+02    0.14470E-06   -0.14135E-06 11040   0.996E-03    0.162E-03
DAV:   9    -0.217621307326E+02    0.86645E-07   -0.13500E-07  8528   0.322E-03    0.442E-04
DAV:  10    -0.217621307031E+02    0.29561E-07   -0.77900E-09  4432   0.828E-04    0.450E-05
DAV:  11    -0.217621306968E+02    0.62410E-08   -0.15886E-09  3920   0.416E-04
  14 F= -.21762131E+02 E0= -.21762370E+02  d E =-.328022E-03  mag=    -0.0000
 trial-energy change:   -0.000328  1 .order   -0.000319   -0.001349    0.000711
 step:   1.0061(harm=  0.9971)  dis= 0.00296  next Energy=   -21.762251 (dE=-0.448E-03)
 bond charge predicted
       N       E                     dE             d eps       ncg     rms          rms(c)
DAV:   1    -0.217649189633E+02   -0.27883E-02   -0.25653E-02  8176   0.191E+00    0.596E-01
DAV:   2    -0.217850113170E+02   -0.20092E-01   -0.19021E-01  8520   0.462E+00    0.166E+00
DAV:   3    -0.217622071543E+02    0.22804E-01   -0.12197E-01  8280   0.357E+00    0.867E-02
DAV:   4    -0.217622681047E+02   -0.60950E-04   -0.13889E-03  7360   0.209E-01    0.501E-02
DAV:   5    -0.217622509642E+02    0.17140E-04   -0.80136E-05  9888   0.905E-02    0.455E-03
DAV:   6    -0.217622506857E+02    0.27848E-06   -0.21414E-06  7808   0.145E-02    0.310E-03
DAV:   7    -0.217622506340E+02    0.51730E-07   -0.28226E-07 10880   0.446E-03    0.266E-04
DAV:   8    -0.217622506639E+02   -0.29879E-07   -0.15771E-08  4864   0.931E-04    0.179E-04
DAV:   9    -0.217622506794E+02   -0.15551E-07   -0.18767E-09  4416   0.467E-04    0.656E-05
DAV:  10    -0.217622506837E+02   -0.43001E-08   -0.40695E-10  3904   0.162E-04
  15 F= -.21762251E+02 E0= -.21762487E+02  d E =-.448008E-03  mag=    -0.0000
 curvature:  -0.65 expect dE=-0.940E-04 dE for cont linesearch -0.451E-08
 trial: gam= 0.16898 g(F)=  0.583E-04 g(S)=  0.857E-04 ort =-0.283E-05 (trialstep = 0.142E+01)
 search vector abs. value=  0.176E-03
 bond charge predicted
       N       E                     dE             d eps       ncg     rms          rms(c)
DAV:   1    -0.217630080317E+02   -0.75735E-03   -0.11265E-02  8392   0.974E-01    0.262E-01
DAV:   2    -0.217660376684E+02   -0.30296E-02   -0.30980E-02  8408   0.186E+00    0.652E-01
DAV:   3    -0.217624062318E+02    0.36314E-02   -0.19367E-02  8344   0.147E+00    0.638E-02
DAV:   4    -0.217623753342E+02    0.30898E-04   -0.33989E-04  7920   0.137E-01    0.173E-02
DAV:   5    -0.217623734996E+02    0.18346E-05   -0.21450E-05  8728   0.502E-02    0.294E-03
DAV:   6    -0.217623734354E+02    0.64153E-07   -0.73883E-07  8416   0.780E-03    0.175E-03
DAV:   7    -0.217623734350E+02    0.46930E-09   -0.86586E-08  8352   0.278E-03
  16 F= -.21762373E+02 E0= -.21762590E+02  d E =-.122751E-03  mag=    -0.0000
 trial-energy change:   -0.000123  1 .order   -0.000124   -0.000204   -0.000044
 step:   1.8369(harm=  1.8125)  dis= 0.00254  next Energy=   -21.762380 (dE=-0.129E-03)
 bond charge predicted
       N       E                     dE             d eps       ncg     rms          rms(c)
DAV:   1    -0.217624338895E+02   -0.60454E-04   -0.97235E-04  8400   0.286E-01    0.771E-02
DAV:   2    -0.217626948218E+02   -0.26093E-03   -0.26927E-03  8368   0.549E-01    0.190E-01
DAV:   3    -0.217623815850E+02    0.31324E-03   -0.16407E-03  8336   0.433E-01    0.182E-02
DAV:   4    -0.217623791798E+02    0.24051E-05   -0.29181E-05  7856   0.393E-02    0.565E-03
DAV:   5    -0.217623789521E+02    0.22768E-06   -0.21782E-06  8816   0.162E-02    0.905E-04
DAV:   6    -0.217623789485E+02    0.36557E-08   -0.78387E-08  8224   0.266E-03
  17 F= -.21762379E+02 E0= -.21762589E+02  d E =-.128265E-03  mag=     0.0000
 curvature:  -1.11 expect dE=-0.153E-04 dE for cont linesearch -0.317E-07
 trial: gam= 0.09918 g(F)=  0.861E-05 g(S)=  0.523E-05 ort =-0.225E-05 (trialstep = 0.150E+01)
 search vector abs. value=  0.151E-04
 bond charge predicted
       N       E                     dE             d eps       ncg     rms          rms(c)
DAV:   1    -0.217624164789E+02   -0.37527E-04   -0.79769E-04  8080   0.211E-01    0.402E-02
DAV:   2    -0.217624315299E+02   -0.15051E-04   -0.31879E-04  8496   0.198E-01    0.651E-02
DAV:   3    -0.217623970255E+02    0.34504E-04   -0.22230E-04  8352   0.160E-01    0.177E-02
DAV:   4    -0.217623927101E+02    0.43154E-05   -0.13477E-05  9808   0.339E-02    0.295E-03
DAV:   5    -0.217623926394E+02    0.70670E-07   -0.10613E-06  8488   0.105E-02    0.958E-04
DAV:   6    -0.217623926403E+02   -0.87175E-09   -0.49120E-08  8208   0.218E-03
  18 F= -.21762393E+02 E0= -.21762604E+02  d E =-.136918E-04  mag=    -0.0000
 trial-energy change:   -0.000014  1 .order   -0.000014   -0.000020   -0.000007
 step:   2.3495(harm=  2.2998)  dis= 0.00097  next Energy=   -21.762395 (dE=-0.157E-04)
 bond charge predicted
       N       E                     dE             d eps       ncg     rms          rms(c)
DAV:   1    -0.217624019642E+02   -0.93248E-05   -0.25271E-04  8064   0.119E-01    0.226E-02
DAV:   2    -0.217624066996E+02   -0.47354E-05   -0.10130E-04  8496   0.111E-01    0.366E-02
DAV:   3    -0.217623958158E+02    0.10884E-04   -0.70509E-05  8344   0.902E-02    0.995E-03
DAV:   4    -0.217623944574E+02    0.13584E-05   -0.42609E-06  9808   0.191E-02    0.165E-03
DAV:   5    -0.217623944329E+02    0.24483E-07   -0.33609E-07  8472   0.591E-03    0.548E-04
DAV:   6    -0.217623944338E+02   -0.84628E-09   -0.13988E-08  4976   0.124E-03
  19 F= -.21762394E+02 E0= -.21762607E+02  d E =-.154853E-04  mag=     0.0000
 curvature:  -1.27 expect dE=-0.268E-05 dE for cont linesearch -0.938E-08
 trial: gam= 0.15034 g(F)=  0.529E-06 g(S)=  0.158E-05 ort =-0.334E-06 (trialstep = 0.167E+01)
 search vector abs. value=  0.235E-05
 reached required accuracy - stopping structural energy minimisation
 writing wavefunctions
