 running on   24 total cores
 distrk:  each k-point on   24 cores,    1 groups
 distr:  one band on    6 cores,    4 groups
 using from now: INCAR     
 vasp.5.4.4.18Apr17-6-g9f103f2a35 (build Jan 03 2018 06:08:52) complex          
  
 POSCAR found :  2 types and       4 ions
 scaLAPACK will be used
 WARNING: for PREC=h ENMAX is automatically increase by 25 %
        this was not the case for versions prior to vasp.4.4
 WARNING: for PREC=h ENMAX is automatically increase by 25 %
        this was not the case for versions prior to vasp.4.4
 LDA part: xc-table for Pade appr. of Perdew
 POSCAR, INCAR and KPOINTS ok, starting setup
 FFT: planning ...
 WAVECAR not read
 entering main loop
       N       E                     dE             d eps       ncg     rms          rms(c)
DAV:   1     0.594148195496E+03    0.59415E+03   -0.31598E+04 15224   0.198E+03
DAV:   2     0.423595422035E+01   -0.58991E+03   -0.57108E+03 13168   0.612E+02
DAV:   3    -0.253074432818E+02   -0.29543E+02   -0.28024E+02 14760   0.160E+02
DAV:   4    -0.259475323475E+02   -0.64009E+00   -0.63766E+00 14088   0.228E+01
DAV:   5    -0.259644244784E+02   -0.16892E-01   -0.16891E-01 15824   0.384E+00    0.188E+01
DAV:   6    -0.280207571118E+02   -0.20563E+01   -0.61890E+01 14552   0.105E+02    0.235E+01
DAV:   7    -0.223358561549E+02    0.56849E+01   -0.20791E+01 14432   0.621E+01    0.399E+00
DAV:   8    -0.224647797828E+02   -0.12892E+00   -0.12728E+00 14920   0.236E+01    0.633E+00
DAV:   9    -0.222961114226E+02    0.16867E+00   -0.55509E-01 15856   0.127E+01    0.957E-01
DAV:  10    -0.222891010054E+02    0.70104E-02   -0.38683E-02 14368   0.218E+00    0.296E-01
DAV:  11    -0.222890228245E+02    0.78181E-04   -0.23571E-03 15800   0.564E-01    0.123E-01
DAV:  12    -0.222890508528E+02   -0.28028E-04   -0.34530E-04 15152   0.253E-01    0.471E-02
DAV:  13    -0.222890537793E+02   -0.29265E-05   -0.28889E-05 16616   0.656E-02    0.150E-02
DAV:  14    -0.222890545306E+02   -0.75133E-06   -0.54332E-06 14352   0.292E-02    0.752E-03
DAV:  15    -0.222890533735E+02    0.11571E-05   -0.95210E-07 15904   0.116E-02    0.317E-03
DAV:  16    -0.222890532170E+02    0.15650E-06   -0.20146E-07 15600   0.645E-03    0.103E-03
DAV:  17    -0.222890531806E+02    0.36371E-07   -0.21285E-08  8864   0.223E-03    0.362E-04
DAV:  18    -0.222890532039E+02   -0.23270E-07   -0.81662E-09  7200   0.104E-03    0.171E-04
DAV:  19    -0.222890532049E+02   -0.10132E-08   -0.12052E-09  6848   0.431E-04
   1 F= -.22289053E+02 E0= -.22289028E+02  d E =-.222891E+02  mag=     0.3456
 curvature:   0.00 expect dE= 0.000E+00 dE for cont linesearch  0.000E+00
 trial: gam= 0.00000 g(F)=  0.834E-02 g(S)=  0.345E+00 ort = 0.000E+00 (trialstep = 0.100E+01)
 search vector abs. value=  0.354E+00
 bond charge predicted
       N       E                     dE             d eps       ncg     rms          rms(c)
DAV:   1    -0.441374189522E+02   -0.21848E+02   -0.23264E+02 12800   0.240E+02    0.427E+01
DAV:   2    -0.437213902151E+02    0.41603E+00   -0.29887E+02 14424   0.198E+02    0.379E+01
DAV:   3    -0.233155710606E+02    0.20406E+02   -0.83141E+01 14904   0.114E+02    0.128E+01
DAV:   4    -0.232765661841E+02    0.39005E-01   -0.85663E+00 15792   0.459E+01    0.974E+00
DAV:   5    -0.224443429170E+02    0.83222E+00   -0.10724E+00 15824   0.188E+01    0.291E+00
DAV:   6    -0.223770601021E+02    0.67283E-01   -0.18837E-01 18032   0.645E+00    0.959E-01
DAV:   7    -0.223685326392E+02    0.85275E-02   -0.39214E-02 14240   0.322E+00    0.685E-01
DAV:   8    -0.223686855438E+02   -0.15290E-03   -0.48622E-03 14488   0.129E+00    0.435E-01
DAV:   9    -0.223702150804E+02   -0.15295E-02   -0.23716E-03 16216   0.659E-01    0.291E-01
DAV:  10    -0.223698460647E+02    0.36902E-03   -0.40021E-03 16432   0.938E-01    0.220E-01
DAV:  11    -0.223703390069E+02   -0.49294E-03   -0.69256E-04 14296   0.382E-01    0.103E-01
DAV:  12    -0.223703889159E+02   -0.49909E-04   -0.86559E-05 16296   0.117E-01    0.566E-02
DAV:  13    -0.223704100362E+02   -0.21120E-04   -0.52174E-05 16776   0.102E-01    0.132E-02
DAV:  14    -0.223704121254E+02   -0.20891E-05   -0.12479E-05 17000   0.451E-02    0.576E-03
DAV:  15    -0.223704128284E+02   -0.70306E-06   -0.11654E-06 13112   0.140E-02    0.448E-03
DAV:  16    -0.223704130565E+02   -0.22810E-06   -0.42252E-07 16144   0.106E-02    0.904E-04
DAV:  17    -0.223704130962E+02   -0.39709E-07   -0.40586E-08  9560   0.213E-03    0.232E-04
DAV:  18    -0.223704130998E+02   -0.35980E-08   -0.26795E-09  6664   0.797E-04
   2 F= -.22370413E+02 E0= -.22370409E+02  d E =-.813599E-01  mag=    -0.4321
 trial-energy change:   -0.081360  1 .order   -0.093955   -0.353597    0.165688
 step:   0.6477(harm=  0.6809)  dis= 0.00553  next Energy=   -22.400148 (dE=-0.111E+00)
 bond charge predicted
       N       E                     dE             d eps       ncg     rms          rms(c)
DAV:   1    -0.251804370449E+02   -0.28100E+01   -0.28738E+01 12832   0.791E+01    0.167E+01
DAV:   2    -0.266010114226E+02   -0.14206E+01   -0.40692E+01 14432   0.856E+01    0.179E+01
DAV:   3    -0.224593022784E+02    0.41417E+01   -0.14898E+01 14440   0.491E+01    0.294E+00
DAV:   4    -0.225477084928E+02   -0.88406E-01   -0.65250E-01 16624   0.159E+01    0.538E+00
DAV:   5    -0.224012905959E+02    0.14642E+00   -0.36739E-01 16104   0.100E+01    0.864E-01
DAV:   6    -0.223991631614E+02    0.21274E-02   -0.25052E-02 13624   0.173E+00    0.284E-01
DAV:   7    -0.223988618358E+02    0.30133E-03   -0.13170E-03 16248   0.474E-01    0.101E-01
DAV:   8    -0.223988977896E+02   -0.35954E-04   -0.27579E-04 14864   0.203E-01    0.496E-02
DAV:   9    -0.223989006829E+02   -0.28933E-05   -0.39690E-05 16976   0.100E-01    0.247E-02
DAV:  10    -0.223988985575E+02    0.21254E-05   -0.84831E-06 16312   0.465E-02    0.666E-03
DAV:  11    -0.223988981467E+02    0.41077E-06   -0.15319E-06 14968   0.165E-02    0.262E-03
DAV:  12    -0.223988979075E+02    0.23922E-06   -0.20059E-07 15672   0.647E-03    0.113E-03
DAV:  13    -0.223988978178E+02    0.89734E-07   -0.27799E-08 11360   0.210E-03    0.541E-04
DAV:  14    -0.223988977937E+02    0.24118E-07   -0.52654E-09  6864   0.103E-03    0.121E-04
DAV:  15    -0.223988977890E+02    0.47021E-08   -0.14539E-09  6760   0.435E-04
   3 F= -.22398898E+02 E0= -.22398932E+02  d E =-.109845E+00  mag=    -0.4270
 curvature:  -0.34 expect dE=-0.139E-01 dE for cont linesearch -0.177E-05
 trial: gam= 0.11284 g(F)=  0.223E-02 g(S)=  0.390E-01 ort = 0.137E-02 (trialstep = 0.930E+00)
 search vector abs. value=  0.461E-01
 bond charge predicted
       N       E                     dE             d eps       ncg     rms          rms(c)
DAV:   1    -0.227858625630E+02   -0.38696E+00   -0.10698E+01 16128   0.633E+01    0.650E+00
DAV:   2    -0.228094993841E+02   -0.23637E-01   -0.42487E+00 14624   0.286E+01    0.574E+00
DAV:   3    -0.225793810144E+02    0.23012E+00   -0.15905E+00 14776   0.227E+01    0.509E+00
DAV:   4    -0.224980102993E+02    0.81371E-01   -0.66027E-01 14976   0.179E+01    0.331E+00
DAV:   5    -0.224278656705E+02    0.70145E-01   -0.16661E-01 16944   0.688E+00    0.349E-01
DAV:   6    -0.224276241063E+02    0.24156E-03   -0.14853E-02 13336   0.139E+00    0.158E-01
DAV:   7    -0.224275145299E+02    0.10958E-03   -0.55674E-04 17696   0.337E-01    0.871E-02
DAV:   8    -0.224275155001E+02   -0.97019E-06   -0.13210E-04 15904   0.149E-01    0.302E-02
DAV:   9    -0.224275241446E+02   -0.86446E-05   -0.24485E-05 15144   0.569E-02    0.122E-02
DAV:  10    -0.224275246296E+02   -0.48496E-06   -0.17474E-06 14944   0.173E-02    0.689E-03
DAV:  11    -0.224275243368E+02    0.29284E-06   -0.55812E-07 15776   0.114E-02    0.237E-03
DAV:  12    -0.224275242851E+02    0.51699E-07   -0.14598E-07 14968   0.519E-03    0.528E-04
DAV:  13    -0.224275242843E+02    0.81491E-09   -0.24095E-08  9128   0.202E-03
   4 F= -.22427524E+02 E0= -.22427589E+02  d E =-.286265E-01  mag=    -0.3859
 trial-energy change:   -0.028626  1 .order   -0.028672   -0.038501   -0.018844
 step:   1.8206(harm=  1.8206)  dis= 0.01019  next Energy=   -22.436602 (dE=-0.377E-01)
 bond charge predicted
       N       E                     dE             d eps       ncg     rms          rms(c)
DAV:   1    -0.227811327581E+02   -0.35361E+00   -0.10014E+01 16024   0.612E+01    0.637E+00
DAV:   2    -0.228083682917E+02   -0.27236E-01   -0.41239E+00 14568   0.284E+01    0.579E+00
DAV:   3    -0.226217801211E+02    0.18659E+00   -0.17599E+00 14808   0.246E+01    0.564E+00
DAV:   4    -0.224873892209E+02    0.13439E+00   -0.64778E-01 15032   0.179E+01    0.258E+00
DAV:   5    -0.224373692829E+02    0.50020E-01   -0.12345E-01 16600   0.580E+00    0.348E-01
DAV:   6    -0.224370396009E+02    0.32968E-03   -0.12974E-02 13344   0.140E+00    0.145E-01
DAV:   7    -0.224370583357E+02   -0.18735E-04   -0.52044E-04 17368   0.289E-01    0.826E-02
DAV:   8    -0.224370685609E+02   -0.10225E-04   -0.98913E-05 16312   0.144E-01    0.312E-02
DAV:   9    -0.224370768402E+02   -0.82793E-05   -0.18695E-05 16048   0.534E-02    0.108E-02
DAV:  10    -0.224370771108E+02   -0.27061E-06   -0.16806E-06 14032   0.172E-02    0.470E-03
DAV:  11    -0.224370769429E+02    0.16784E-06   -0.30921E-07 15792   0.825E-03    0.205E-03
DAV:  12    -0.224370769061E+02    0.36835E-07   -0.83947E-08 13560   0.418E-03    0.414E-04
DAV:  13    -0.224370769078E+02   -0.17171E-08   -0.15198E-08  8576   0.162E-03
   5 F= -.22437077E+02 E0= -.22436911E+02  d E =-.381791E-01  mag=    -0.3510
 curvature:  -1.01 expect dE=-0.150E-01 dE for cont linesearch -0.110E-04
 trial: gam= 0.40459 g(F)=  0.333E-03 g(S)=  0.145E-01 ort = 0.706E-03 (trialstep = 0.111E+01)
 search vector abs. value=  0.230E-01
 bond charge predicted
       N       E                     dE             d eps       ncg     rms          rms(c)
DAV:   1    -0.227955211603E+02   -0.35844E+00   -0.76099E+00 13824   0.287E+01    0.534E+00
DAV:   2    -0.227496055137E+02    0.45916E-01   -0.23640E+00 14712   0.228E+01    0.563E+00
DAV:   3    -0.227350639960E+02    0.14542E-01   -0.16492E+00 15496   0.251E+01    0.746E+00
DAV:   4    -0.224783912768E+02    0.25667E+00   -0.96952E-01 15120   0.157E+01    0.165E+00
DAV:   5    -0.224501219763E+02    0.28269E-01   -0.77916E-02 15560   0.353E+00    0.435E-01
DAV:   6    -0.224491689399E+02    0.95304E-03   -0.95850E-03 14456   0.136E+00    0.135E-01
DAV:   7    -0.224491793627E+02   -0.10423E-04   -0.67385E-04 15904   0.341E-01    0.802E-02
DAV:   8    -0.224492224003E+02   -0.43038E-04   -0.14711E-04 14496   0.147E-01    0.420E-02
DAV:   9    -0.224492352742E+02   -0.12874E-04   -0.31483E-05 17560   0.786E-02    0.129E-02
DAV:  10    -0.224492378050E+02   -0.25308E-05   -0.57266E-06 14296   0.296E-02    0.527E-03
DAV:  11    -0.224492382179E+02   -0.41286E-06   -0.51556E-07 15472   0.920E-03    0.249E-03
DAV:  12    -0.224492383265E+02   -0.10863E-06   -0.11811E-07 15760   0.560E-03    0.742E-04
DAV:  13    -0.224492383502E+02   -0.23687E-07   -0.18271E-08  7840   0.173E-03    0.298E-04
DAV:  14    -0.224492383571E+02   -0.69376E-08   -0.32663E-09  6592   0.931E-04
   6 F= -.22449238E+02 E0= -.22449003E+02  d E =-.121614E-01  mag=    -0.3629
 trial-energy change:   -0.012161  1 .order   -0.012185   -0.016758   -0.007611
 step:   2.0295(harm=  2.0295)  dis= 0.00182  next Energy=   -22.452428 (dE=-0.154E-01)
 bond charge predicted
       N       E                     dE             d eps       ncg     rms          rms(c)
DAV:   1    -0.226851020580E+02   -0.23586E+00   -0.51965E+00 13848   0.235E+01    0.435E+00
DAV:   2    -0.226423394438E+02    0.42763E-01   -0.15018E+00 14784   0.181E+01    0.439E+00
DAV:   3    -0.226300321595E+02    0.12307E-01   -0.10196E+00 15448   0.201E+01    0.605E+00
DAV:   4    -0.224731641519E+02    0.15687E+00   -0.62397E-01 15144   0.130E+01    0.141E+00
DAV:   5    -0.224535383702E+02    0.19626E-01   -0.52623E-02 15992   0.303E+00    0.359E-01
DAV:   6    -0.224528473268E+02    0.69104E-03   -0.66273E-03 14232   0.111E+00    0.107E-01
DAV:   7    -0.224528141010E+02    0.33226E-04   -0.45418E-04 16816   0.301E-01    0.570E-02
DAV:   8    -0.224528370455E+02   -0.22945E-04   -0.82388E-05 14592   0.113E-01    0.353E-02
DAV:   9    -0.224528490658E+02   -0.12020E-04   -0.20080E-05 17120   0.622E-02    0.172E-02
DAV:  10    -0.224528540980E+02   -0.50322E-05   -0.74330E-06 15992   0.340E-02    0.103E-02
DAV:  11    -0.224528558274E+02   -0.17294E-05   -0.22112E-06 15928   0.172E-02    0.660E-03
DAV:  12    -0.224528566662E+02   -0.83881E-06   -0.27479E-06 15128   0.198E-02    0.236E-03
DAV:  13    -0.224528568797E+02   -0.21347E-06   -0.25218E-07 13712   0.541E-03    0.946E-04
DAV:  14    -0.224528568880E+02   -0.83510E-08   -0.43721E-08 10912   0.255E-03
   7 F= -.22452857E+02 E0= -.22452663E+02  d E =-.157800E-01  mag=    -0.3258
 curvature:  -1.54 expect dE=-0.145E-01 dE for cont linesearch -0.668E-04
 trial: gam= 0.63944 g(F)=  0.619E-03 g(S)=  0.878E-02 ort = 0.998E-03 (trialstep = 0.129E+01)
 search vector abs. value=  0.201E-01
 bond charge predicted
       N       E                     dE             d eps       ncg     rms          rms(c)
DAV:   1    -0.232435986157E+02   -0.79074E+00   -0.12091E+01 14680   0.529E+01    0.882E+00
DAV:   2    -0.234104688490E+02   -0.16687E+00   -0.95174E+00 14544   0.433E+01    0.853E+00
DAV:   3    -0.225597232342E+02    0.85075E+00   -0.32952E+00 14608   0.295E+01    0.438E+00
DAV:   4    -0.225244763201E+02    0.35247E-01   -0.78092E-01 14576   0.157E+01    0.304E+00
DAV:   5    -0.224576503431E+02    0.66826E-01   -0.10584E-01 16568   0.666E+00    0.483E-01
DAV:   6    -0.224584430521E+02   -0.79271E-03   -0.14268E-02 13168   0.130E+00    0.204E-01
DAV:   7    -0.224586069358E+02   -0.16388E-03   -0.79105E-04 16280   0.414E-01    0.962E-02
DAV:   8    -0.224586949173E+02   -0.87981E-04   -0.21578E-04 16312   0.204E-01    0.690E-02
DAV:   9    -0.224587582827E+02   -0.63365E-04   -0.65377E-05 17208   0.115E-01    0.692E-02
DAV:  10    -0.224587819456E+02   -0.23663E-04   -0.12334E-05 17248   0.407E-02    0.723E-02
DAV:  11    -0.224584576400E+02    0.32431E-03   -0.56287E-04 16336   0.358E-01    0.879E-02
DAV:  12    -0.224581335185E+02    0.32412E-03   -0.91405E-04 16768   0.429E-01    0.101E-01
DAV:  13    -0.224584956293E+02   -0.36211E-03   -0.42916E-04 15760   0.355E-01    0.611E-02
DAV:  14    -0.224586651282E+02   -0.16950E-03   -0.95018E-04 17128   0.455E-01    0.512E-02
DAV:  15    -0.224588391792E+02   -0.17405E-03   -0.13830E-03 16744   0.535E-01    0.468E-02
DAV:  16    -0.224589869642E+02   -0.14778E-03   -0.54025E-04 16768   0.295E-01    0.512E-02
DAV:  17    -0.224590512619E+02   -0.64298E-04   -0.50392E-05 12960   0.966E-02    0.440E-02
DAV:  18    -0.224590444198E+02    0.68421E-05   -0.16505E-05 16640   0.614E-02    0.416E-02
DAV:  19    -0.224590462379E+02   -0.18181E-05   -0.14096E-06 13512   0.204E-02    0.419E-02
DAV:  20    -0.224590386126E+02    0.76253E-05   -0.55394E-06 16312   0.346E-02    0.421E-02
DAV:  21    -0.224590460181E+02   -0.74055E-05   -0.30323E-06 16112   0.295E-02    0.402E-02
DAV:  22    -0.224589971141E+02    0.48904E-04   -0.26275E-04 16792   0.227E-01    0.539E-02
DAV:  23    -0.224590331402E+02   -0.36026E-04   -0.24984E-05 13816   0.712E-02    0.286E-02
DAV:  24    -0.224590343026E+02   -0.11623E-05   -0.86226E-06 17832   0.465E-02    0.286E-02
DAV:  25    -0.224590490085E+02   -0.14706E-04   -0.25960E-05 16568   0.717E-02    0.120E-02
DAV:  26    -0.224590494770E+02   -0.46851E-06   -0.28839E-06 13128   0.276E-02    0.144E-02
DAV:  27    -0.224590531765E+02   -0.36996E-05   -0.16296E-05 16568   0.589E-02    0.254E-03
DAV:  28    -0.224590545040E+02   -0.13274E-05   -0.15569E-06 12944   0.152E-02    0.348E-03
DAV:  29    -0.224590547466E+02   -0.24264E-06   -0.14256E-06 16984   0.175E-02    0.874E-04
DAV:  30    -0.224590548849E+02   -0.13831E-06   -0.20198E-07 13664   0.457E-03    0.446E-04
DAV:  31    -0.224590548986E+02   -0.13652E-07   -0.48718E-08  9872   0.298E-03    0.268E-04
DAV:  32    -0.224590549051E+02   -0.65611E-08   -0.70076E-09  6576   0.989E-04
   8 F= -.22459055E+02 E0= -.22459684E+02  d E =-.619802E-02  mag=    -0.0000
 trial-energy change:   -0.006198  1 .order   -0.005753   -0.012965    0.001458
 step:   1.1804(harm=  1.1615)  dis= 0.00418  next Energy=   -22.459118 (dE=-0.626E-02)
 bond charge predicted
       N       E                     dE             d eps       ncg     rms          rms(c)
DAV:   1    -0.224651501347E+02   -0.60952E-02   -0.92908E-02 14800   0.462E+00    0.761E-01
DAV:   2    -0.224663811525E+02   -0.12310E-02   -0.74131E-02 14592   0.377E+00    0.734E-01
DAV:   3    -0.224596782884E+02    0.67029E-02   -0.24306E-02 14480   0.239E+00    0.280E-01
DAV:   4    -0.224597209414E+02   -0.42653E-04   -0.39214E-03 14976   0.155E+00    0.292E-01
DAV:   5    -0.224591250755E+02    0.59587E-03   -0.11023E-03 17440   0.811E-01    0.313E-02
DAV:   6    -0.224591235321E+02    0.15434E-05   -0.11342E-04 13320   0.117E-01    0.108E-02
DAV:   7    -0.224591236803E+02   -0.14823E-06   -0.44570E-06 16160   0.405E-02    0.392E-03
DAV:   8    -0.224591240173E+02   -0.33696E-06   -0.56805E-07 14624   0.106E-02    0.105E-03
DAV:   9    -0.224591241073E+02   -0.90018E-07   -0.37457E-08 12528   0.309E-03    0.266E-04
DAV:  10    -0.224591241307E+02   -0.23350E-07   -0.43089E-09  7064   0.909E-04    0.758E-05
DAV:  11    -0.224591241324E+02   -0.17317E-08   -0.87639E-10  6736   0.471E-04
   9 F= -.22459124E+02 E0= -.22459751E+02  d E =-.626724E-02  mag=    -0.0000
 curvature:  -1.14 expect dE=-0.288E-02 dE for cont linesearch -0.432E-07
 trial: gam= 0.55658 g(F)=  0.314E-03 g(S)=  0.222E-02 ort =-0.276E-04 (trialstep = 0.127E+01)
 search vector abs. value=  0.872E-02
 bond charge predicted
       N       E                     dE             d eps       ncg     rms          rms(c)
DAV:   1    -0.224964854403E+02   -0.37361E-01   -0.34522E+00 17032   0.435E+01    0.284E+00
DAV:   2    -0.225537453103E+02   -0.57260E-01   -0.10684E+00 15544   0.160E+01    0.369E+00
DAV:   3    -0.225098586357E+02    0.43887E-01   -0.37848E-01 15152   0.140E+01    0.278E+00
DAV:   4    -0.224731929651E+02    0.36666E-01   -0.16250E-01 15920   0.685E+00    0.100E+00
DAV:   5    -0.224611380934E+02    0.12055E-01   -0.32025E-02 14992   0.262E+00    0.150E-01
DAV:   6    -0.224608857399E+02    0.25235E-03   -0.25846E-03 14256   0.725E-01    0.741E-02
DAV:   7    -0.224608394730E+02    0.46267E-04   -0.24161E-04 17104   0.217E-01    0.254E-02
DAV:   8    -0.224608462339E+02   -0.67608E-05   -0.50167E-05 14384   0.916E-02    0.127E-02
DAV:   9    -0.224608464045E+02   -0.17060E-06   -0.46209E-06 14816   0.360E-02    0.290E-03
DAV:  10    -0.224608463809E+02    0.23581E-07   -0.46069E-07 14896   0.106E-02    0.896E-04
DAV:  11    -0.224608463878E+02   -0.69067E-08   -0.63708E-08 13968   0.429E-03
  10 F= -.22460846E+02 E0= -.22461425E+02  d E =-.172226E-02  mag=    -0.0000
 trial-energy change:   -0.001722  1 .order   -0.001734   -0.003201   -0.000266
 step:   1.3878(harm=  1.3849)  dis= 0.00622  next Energy=   -22.460859 (dE=-0.173E-02)
 bond charge predicted
       N       E                     dE             d eps       ncg     rms          rms(c)
DAV:   1    -0.224611474041E+02   -0.30102E-03   -0.29655E-02 17056   0.400E+00    0.256E-01
DAV:   2    -0.224613900650E+02   -0.24266E-03   -0.83302E-03 14416   0.136E+00    0.260E-01
DAV:   3    -0.224613516953E+02    0.38370E-04   -0.30606E-03 15104   0.143E+00    0.268E-01
DAV:   4    -0.224609476389E+02    0.40406E-03   -0.13675E-03 16320   0.858E-01    0.857E-02
DAV:   5    -0.224608576342E+02    0.90005E-04   -0.27447E-04 15136   0.237E-01    0.103E-02
DAV:   6    -0.224608569208E+02    0.71330E-06   -0.21988E-05 14016   0.720E-02    0.531E-03
DAV:   7    -0.224608568210E+02    0.99868E-07   -0.15073E-06 17680   0.170E-02    0.208E-03
DAV:   8    -0.224608569033E+02   -0.82331E-07   -0.23841E-07 14944   0.601E-03    0.904E-04
DAV:   9    -0.224608569284E+02   -0.25097E-07   -0.20719E-08  8160   0.243E-03    0.177E-04
DAV:  10    -0.224608569325E+02   -0.41109E-08   -0.37015E-09  6704   0.907E-04
  11 F= -.22460857E+02 E0= -.22461427E+02  d E =-.173280E-02  mag=    -0.0000
 curvature:  -2.39 expect dE=-0.198E-02 dE for cont linesearch -0.464E-07
 trial: gam= 0.02181 g(F)=  0.740E-04 g(S)=  0.753E-03 ort =-0.130E-04 (trialstep = 0.129E+01)
 search vector abs. value=  0.831E-03
 bond charge predicted
       N       E                     dE             d eps       ncg     rms          rms(c)
DAV:   1    -0.225110717082E+02   -0.50215E-01   -0.66522E-01 12880   0.155E+01    0.225E+00
DAV:   2    -0.225291811217E+02   -0.18109E-01   -0.72510E-01 14560   0.115E+01    0.224E+00
DAV:   3    -0.224636695169E+02    0.65512E-01   -0.22744E-01 14480   0.681E+00    0.571E-01
DAV:   4    -0.224649122735E+02   -0.12428E-02   -0.20615E-02 15744   0.341E+00    0.755E-01
DAV:   5    -0.224611442920E+02    0.37680E-02   -0.74191E-03 16480   0.203E+00    0.731E-02
DAV:   6    -0.224611317244E+02    0.12568E-04   -0.62541E-04 13360   0.247E-01    0.298E-02
DAV:   7    -0.224611263501E+02    0.53743E-05   -0.37293E-05 16016   0.102E-01    0.106E-02
DAV:   8    -0.224611263457E+02    0.43874E-08   -0.57178E-06 15168   0.416E-02    0.308E-03
DAV:   9    -0.224611265956E+02   -0.24996E-06   -0.35192E-07 15872   0.864E-03    0.870E-04
DAV:  10    -0.224611266864E+02   -0.90793E-07   -0.35361E-08 11872   0.234E-03    0.212E-04
DAV:  11    -0.224611266965E+02   -0.10044E-07   -0.31488E-09  7072   0.915E-04    0.107E-04
DAV:  12    -0.224611267044E+02   -0.79544E-08   -0.82673E-10  6640   0.398E-04
  12 F= -.22461127E+02 E0= -.22461670E+02  d E =-.269772E-03  mag=    -0.0000
 trial-energy change:   -0.000270  1 .order   -0.000272   -0.001070    0.000525
 step:   0.8648(harm=  0.8674)  dis= 0.00075  next Energy=   -22.461214 (dE=-0.357E-03)
 bond charge predicted
       N       E                     dE             d eps       ncg     rms          rms(c)
DAV:   1    -0.224666778969E+02   -0.55512E-02   -0.72706E-02 12896   0.512E+00    0.747E-01
DAV:   2    -0.224686940874E+02   -0.20162E-02   -0.78478E-02 14544   0.384E+00    0.745E-01
DAV:   3    -0.224616661809E+02    0.70279E-02   -0.25376E-02 14464   0.245E+00    0.272E-01
DAV:   4    -0.224614978657E+02    0.16832E-03   -0.27968E-03 14720   0.125E+00    0.182E-01
DAV:   5    -0.224612198376E+02    0.27803E-03   -0.46967E-04 17344   0.488E-01    0.260E-02
DAV:   6    -0.224612153438E+02    0.44938E-05   -0.48132E-05 13728   0.732E-02    0.876E-03
DAV:   7    -0.224612140815E+02    0.12624E-05   -0.30140E-06 15104   0.286E-02    0.240E-03
DAV:   8    -0.224612139143E+02    0.16714E-06   -0.37918E-07 15672   0.111E-02    0.926E-04
DAV:   9    -0.224612138052E+02    0.10918E-06   -0.23724E-08 10704   0.237E-03    0.177E-04
DAV:  10    -0.224612137914E+02    0.13715E-07   -0.49829E-09  7064   0.101E-03    0.801E-05
DAV:  11    -0.224612137917E+02   -0.23465E-09   -0.10955E-09  6768   0.466E-04
  13 F= -.22461214E+02 E0= -.22461767E+02  d E =-.356859E-03  mag=    -0.0000
 curvature:  -0.44 expect dE=-0.109E-03 dE for cont linesearch -0.158E-08
 trial: gam= 0.29907 g(F)=  0.147E-04 g(S)=  0.235E-03 ort = 0.173E-05 (trialstep = 0.121E+01)
 search vector abs. value=  0.325E-03
 bond charge predicted
       N       E                     dE             d eps       ncg     rms          rms(c)
DAV:   1    -0.224678615832E+02   -0.66478E-02   -0.15411E-01 14272   0.901E+00    0.906E-01
DAV:   2    -0.224726888557E+02   -0.48273E-02   -0.11253E-01 14672   0.493E+00    0.107E+00
DAV:   3    -0.224693809433E+02    0.33079E-02   -0.67851E-02 15040   0.585E+00    0.120E+00
DAV:   4    -0.224617222272E+02    0.76587E-02   -0.20536E-02 15080   0.335E+00    0.179E-01
DAV:   5    -0.224613855603E+02    0.33667E-03   -0.20533E-03 13688   0.440E-01    0.627E-02
DAV:   6    -0.224613549406E+02    0.30620E-04   -0.18414E-04 15128   0.184E-01    0.131E-02
DAV:   7    -0.224613534507E+02    0.14899E-05   -0.16631E-05 14352   0.609E-02    0.603E-03
DAV:   8    -0.224613531967E+02    0.25405E-06   -0.14434E-06 17776   0.246E-02    0.251E-03
DAV:   9    -0.224613530606E+02    0.13606E-06   -0.12794E-07 16664   0.720E-03    0.525E-04
DAV:  10    -0.224613530487E+02    0.11962E-07   -0.11977E-08  7248   0.154E-03    0.138E-04
DAV:  11    -0.224613530409E+02    0.77252E-08   -0.28736E-09  6864   0.554E-04
  14 F= -.22461353E+02 E0= -.22461885E+02  d E =-.139249E-03  mag=    -0.0000
 trial-energy change:   -0.000139  1 .order   -0.000118   -0.000302    0.000067
 step:   1.0400(harm=  0.9894)  dis= 0.00069  next Energy=   -22.461358 (dE=-0.144E-03)
 bond charge predicted
       N       E                     dE             d eps       ncg     rms          rms(c)
DAV:   1    -0.224614851318E+02   -0.13208E-03   -0.29854E-03 14392   0.125E+00    0.125E-01
DAV:   2    -0.224615664257E+02   -0.81294E-04   -0.21554E-03 14688   0.675E-01    0.142E-01
DAV:   3    -0.224614980274E+02    0.68398E-04   -0.11687E-03 15024   0.803E-01    0.161E-01
DAV:   4    -0.224613656877E+02    0.13234E-03   -0.41070E-04 15056   0.505E-01    0.256E-02
DAV:   5    -0.224613589192E+02    0.67685E-05   -0.36642E-05 14128   0.620E-02    0.828E-03
DAV:   6    -0.224613585376E+02    0.38166E-06   -0.33554E-06 15144   0.243E-02    0.183E-03
DAV:   7    -0.224613587064E+02   -0.16886E-06   -0.24991E-07 14536   0.638E-03    0.585E-04
DAV:   8    -0.224613587559E+02   -0.49504E-07   -0.12258E-08  8088   0.182E-03    0.233E-04
DAV:   9    -0.224613587643E+02   -0.84110E-08   -0.28718E-09  6856   0.916E-04
  15 F= -.22461359E+02 E0= -.22461894E+02  d E =-.144973E-03  mag=    -0.0000
 curvature:  -0.61 expect dE=-0.823E-05 dE for cont linesearch -0.271E-06
 trial: gam= 0.10358 g(F)=  0.193E-05 g(S)=  0.116E-04 ort =-0.120E-04 (trialstep = 0.117E+01)
 search vector abs. value=  0.145E-04
 bond charge predicted
       N       E                     dE             d eps       ncg     rms          rms(c)
DAV:   1    -0.224614502036E+02   -0.91448E-04   -0.46874E-03 17064   0.133E+00    0.103E-01
DAV:   2    -0.224614457337E+02    0.44699E-05   -0.96930E-04 14904   0.491E-01    0.971E-02
DAV:   3    -0.224614477197E+02   -0.19860E-05   -0.41504E-04 15808   0.544E-01    0.105E-01
DAV:   4    -0.224613710310E+02    0.76689E-04   -0.15880E-04 17944   0.290E-01    0.794E-03
DAV:   5    -0.224613711713E+02   -0.14024E-06   -0.17140E-05 13704   0.464E-02    0.466E-03
DAV:   6    -0.224613709039E+02    0.26739E-06   -0.91768E-07 14872   0.149E-02    0.189E-03
DAV:   7    -0.224613708746E+02    0.29248E-07   -0.10474E-07 14568   0.547E-03    0.778E-04
DAV:   8    -0.224613708854E+02   -0.10737E-07   -0.23885E-08  9032   0.165E-03    0.295E-04
DAV:   9    -0.224613708892E+02   -0.38799E-08   -0.30551E-09  6680   0.925E-04
  16 F= -.22461371E+02 E0= -.22461901E+02  d E =-.121249E-04  mag=    -0.0000
 trial-energy change:   -0.000012  1 .order   -0.000012   -0.000014   -0.000010
 step:   3.7376(harm=  3.7376)  dis= 0.00057  next Energy=   -22.461382 (dE=-0.230E-04)
 bond charge predicted
       N       E                     dE             d eps       ncg     rms          rms(c)
DAV:   1    -0.224617607191E+02   -0.38983E-03   -0.22359E-02 17072   0.290E+00    0.225E-01
DAV:   2    -0.224617404419E+02    0.20277E-04   -0.46311E-03 14784   0.107E+00    0.212E-01
DAV:   3    -0.224617486276E+02   -0.81856E-05   -0.19731E-03 15800   0.118E+00    0.230E-01
DAV:   4    -0.224613828306E+02    0.36580E-03   -0.76329E-04 17960   0.630E-01    0.170E-02
DAV:   5    -0.224613839431E+02   -0.11125E-05   -0.81499E-05 13600   0.102E-01    0.102E-02
DAV:   6    -0.224613825635E+02    0.13796E-05   -0.43527E-06 14864   0.323E-02    0.413E-03
DAV:   7    -0.224613824229E+02    0.14057E-06   -0.49773E-07 16640   0.119E-02    0.170E-03
DAV:   8    -0.224613824624E+02   -0.39498E-07   -0.11571E-07 14288   0.336E-03    0.642E-04
DAV:   9    -0.224613824745E+02   -0.12087E-07   -0.71791E-09  6848   0.165E-03    0.138E-04
DAV:  10    -0.224613824734E+02    0.11751E-08   -0.21036E-09  6632   0.656E-04
  17 F= -.22461382E+02 E0= -.22461901E+02  d E =-.237090E-04  mag=     0.0000
 curvature:  -2.21 expect dE=-0.243E-04 dE for cont linesearch -0.452E-07
 trial: gam= 0.64739 g(F)=  0.135E-06 g(S)=  0.109E-04 ort = 0.545E-06 (trialstep = 0.138E+01)
 search vector abs. value=  0.178E-04
 bond charge predicted
       N       E                     dE             d eps       ncg     rms          rms(c)
DAV:   1    -0.224616658999E+02   -0.28343E-03   -0.82162E-03 15328   0.998E-01    0.144E-01
DAV:   2    -0.224614856132E+02    0.18029E-03   -0.78479E-04 14688   0.457E-01    0.781E-02
DAV:   3    -0.224614325841E+02    0.53029E-04   -0.29182E-04 14560   0.222E-01    0.557E-02
DAV:   4    -0.224613943892E+02    0.38195E-04   -0.10836E-04 15264   0.141E-01    0.182E-02
DAV:   5    -0.224613936323E+02    0.75689E-06   -0.16072E-05 14320   0.857E-02    0.743E-03
DAV:   6    -0.224613930740E+02    0.55836E-06   -0.18432E-06 14576   0.281E-02    0.208E-03
DAV:   7    -0.224613930520E+02    0.21961E-07   -0.27933E-07 15008   0.667E-03    0.822E-04
DAV:   8    -0.224613930541E+02   -0.20864E-08   -0.19196E-08  8160   0.195E-03
  18 F= -.22461393E+02 E0= -.22461912E+02  d E =-.105807E-04  mag=     0.0000
 trial-energy change:   -0.000011  1 .order   -0.000010   -0.000016   -0.000005
 step:   1.9199(harm=  2.0267)  dis= 0.00010  next Energy=   -22.461394 (dE=-0.116E-04)
 bond charge predicted
       N       E                     dE             d eps       ncg     rms          rms(c)
DAV:   1    -0.224614369911E+02   -0.43939E-04   -0.12819E-03 15328   0.395E-01    0.569E-02
DAV:   2    -0.224614091430E+02    0.27848E-04   -0.12277E-04 14672   0.181E-01    0.309E-02
DAV:   3    -0.224614005644E+02    0.85786E-05   -0.45532E-05 14560   0.879E-02    0.220E-02
DAV:   4    -0.224613949311E+02    0.56334E-05   -0.17363E-05 15504   0.601E-02    0.101E-02
DAV:   5    -0.224613945728E+02    0.35826E-06   -0.34293E-06 13968   0.414E-02    0.234E-03
DAV:   6    -0.224613944999E+02    0.72880E-07   -0.31449E-07 13968   0.100E-02    0.825E-04
DAV:   7    -0.224613944906E+02    0.93260E-08   -0.38245E-08 11904   0.248E-03
  19 F= -.22461394E+02 E0= -.22461913E+02  d E =-.120172E-04  mag=     0.0000
 curvature:  -1.55 expect dE=-0.845E-06 dE for cont linesearch -0.195E-06
 trial: gam=-0.01166 g(F)=  0.291E-06 g(S)=  0.256E-06 ort = 0.150E-05 (trialstep = 0.149E+01)
 search vector abs. value=  0.515E-06
 reached required accuracy - stopping structural energy minimisation
 writing wavefunctions
