       N       E                     dE             d eps       ncg     rms          rms(c)
DAV:   1     0.371191991114E+03    0.37119E+03   -0.24165E+04  8560   0.135E+03
DAV:   2    -0.140873084086E+02   -0.38528E+03   -0.36674E+03  7320   0.414E+02
DAV:   3    -0.299459107499E+02   -0.15859E+02   -0.15245E+02  8712   0.975E+01
DAV:   4    -0.303044173455E+02   -0.35851E+00   -0.35799E+00  7880   0.146E+01
DAV:   5    -0.303153017405E+02   -0.10884E-01   -0.10883E-01  8808   0.275E+00    0.261E+01
DAV:   6    -0.463507281291E+02   -0.16035E+02   -0.14405E+02  8024   0.164E+02    0.341E+01
DAV:   7    -0.272087604199E+02    0.19142E+02   -0.45949E+01  8024   0.105E+02    0.728E+00
DAV:   8    -0.268040028594E+02    0.40476E+00   -0.52469E+00 10088   0.239E+01    0.275E+00
DAV:   9    -0.267648757694E+02    0.39127E-01   -0.57743E-01  8728   0.100E+01    0.150E+00
DAV:  10    -0.267346488844E+02    0.30227E-01   -0.72932E-02  8984   0.392E+00    0.180E-01
DAV:  11    -0.267357663351E+02   -0.11175E-02   -0.64651E-03  8552   0.577E-01    0.253E-01
DAV:  12    -0.267351432764E+02    0.62306E-03   -0.73109E-04 10488   0.314E-01    0.118E-01
DAV:  13    -0.267349894767E+02    0.15380E-03   -0.33162E-04 10800   0.210E-01    0.223E-02
DAV:  14    -0.267349852392E+02    0.42375E-05   -0.45490E-05 10984   0.698E-02    0.109E-02
DAV:  15    -0.267349842854E+02    0.95375E-06   -0.21483E-06  8096   0.153E-02    0.591E-03
DAV:  16    -0.267349836082E+02    0.67724E-06   -0.65279E-07 10824   0.981E-03    0.129E-03
DAV:  17    -0.267349835288E+02    0.79403E-07   -0.81265E-08  9944   0.244E-03    0.150E-04
DAV:  18    -0.267349835321E+02   -0.32787E-08   -0.37699E-09  4504   0.535E-04
   1 F= -.26734984E+02 E0= -.26735010E+02  d E =-.267350E+02  mag=     0.0000
       N       E                     dE             d eps       ncg     rms          rms(c)
DAV:   1    -0.184107830013E+03   -0.15737E+03   -0.24709E+03  7040   0.739E+02    0.902E+01
DAV:   2    -0.512434481595E+02    0.13286E+03   -0.79315E+02  8032   0.235E+02    0.425E+01
DAV:   3    -0.598254006193E+02   -0.85820E+01   -0.30207E+02  7264   0.176E+02    0.441E+01
DAV:   4    -0.287866922252E+02    0.31039E+02   -0.91946E+01  8896   0.106E+02    0.455E+00
DAV:   5    -0.288733001500E+02   -0.86608E-01   -0.73090E+00  8176   0.282E+01    0.121E+01
DAV:   6    -0.276238696189E+02    0.12494E+01   -0.50143E+00  9808   0.255E+01    0.423E+00
DAV:   7    -0.274206945697E+02    0.20318E+00   -0.51444E-01  9056   0.661E+00    0.395E-01
DAV:   8    -0.274198207268E+02    0.87384E-03   -0.22545E-02  8624   0.104E+00    0.103E-01
DAV:   9    -0.274197872873E+02    0.33440E-04   -0.81429E-04  7936   0.337E-01    0.290E-02
DAV:  10    -0.274198154434E+02   -0.28156E-04   -0.17372E-04  8608   0.141E-01    0.320E-02
DAV:  11    -0.274198106236E+02    0.48198E-05   -0.85182E-05  8176   0.114E-01    0.260E-02
DAV:  12    -0.274198058383E+02    0.47853E-05   -0.17831E-05  8528   0.494E-02    0.399E-03
DAV:  13    -0.274198057054E+02    0.13292E-06   -0.66863E-07  9872   0.712E-03    0.191E-03
DAV:  14    -0.274198056149E+02    0.90449E-07   -0.14843E-07  8880   0.400E-03    0.397E-04
DAV:  15    -0.274198056072E+02    0.77025E-08   -0.99304E-09  4504   0.109E-03
   2 F= -.27419806E+02 E0= -.27420339E+02  d E =-.684822E+00  mag=     0.0000
       N       E                     dE             d eps       ncg     rms          rms(c)
DAV:   1    -0.107494991933E+03   -0.80075E+02   -0.60917E+02  7936   0.295E+02    0.972E+01
DAV:   2    -0.218983918877E+03   -0.11149E+03   -0.17408E+03  8096   0.472E+02    0.751E+01
DAV:   3    -0.606971910248E+02    0.15829E+03   -0.52874E+02  7984   0.199E+02    0.335E+01
DAV:   4    -0.504794891405E+02    0.10218E+02   -0.16126E+01  7952   0.359E+01    0.288E+01
DAV:   5    -0.346143978067E+02    0.15865E+02   -0.12722E+01  8976   0.451E+01    0.168E+01
DAV:   6    -0.434346384704E+02   -0.88202E+01   -0.11611E+02  9984   0.107E+02    0.446E+01
DAV:   7    -0.300069192787E+02    0.13428E+02   -0.21832E+01  9680   0.398E+01    0.145E+01
DAV:   8    -0.285511052516E+02    0.14558E+01   -0.31511E+00 10144   0.155E+01    0.395E+00
DAV:   9    -0.285458645542E+02    0.52407E-02   -0.92370E-02  8016   0.218E+00    0.377E+00
DAV:  10    -0.285253034024E+02    0.20561E-01   -0.10247E+00  8744   0.120E+01    0.317E+00
DAV:  11    -0.284304024333E+02    0.94901E-01   -0.21913E-01  8272   0.613E+00    0.314E-01
DAV:  12    -0.284389818906E+02   -0.85795E-02   -0.10247E-02  8528   0.135E+00    0.959E-01
DAV:  13    -0.284323381644E+02    0.66437E-02   -0.48740E-03  8768   0.887E-01    0.485E-01
DAV:  14    -0.284305406593E+02    0.17975E-02   -0.17068E-03 10416   0.409E-01    0.240E-01
DAV:  15    -0.284303614519E+02    0.17921E-03   -0.97847E-05  9224   0.683E-02    0.221E-01
DAV:  16    -0.284298654242E+02    0.49603E-03   -0.57066E-04 10208   0.269E-01    0.550E-02
DAV:  17    -0.284298306957E+02    0.34729E-04   -0.20047E-04 11088   0.131E-01    0.309E-02
DAV:  18    -0.284298246425E+02    0.60531E-05   -0.28494E-05  8560   0.607E-02    0.391E-03
DAV:  19    -0.284298252437E+02   -0.60116E-06   -0.39830E-06 10616   0.202E-02    0.752E-03
DAV:  20    -0.284298244574E+02    0.78628E-06   -0.24109E-06  8920   0.187E-02    0.313E-03
DAV:  21    -0.284298244270E+02    0.30434E-07   -0.12741E-07  7928   0.381E-03    0.172E-03
DAV:  22    -0.284298244952E+02   -0.68187E-07   -0.15573E-07  8416   0.459E-03    0.994E-04
DAV:  23    -0.284298244786E+02    0.16626E-07   -0.95318E-09  3968   0.115E-03    0.500E-04
DAV:  24    -0.284298244673E+02    0.11270E-07   -0.27745E-09  3776   0.360E-04    0.212E-04
DAV:  25    -0.284298244624E+02    0.48703E-08   -0.12684E-09  3744   0.284E-04
   3 F= -.28429824E+02 E0= -.28429272E+02  d E =-.169484E+01  mag=     0.0000
       N       E                     dE             d eps       ncg     rms          rms(c)
DAV:   1    -0.284483742218E+02   -0.18550E-01   -0.12572E-01  7472   0.485E+00    0.156E+00
DAV:   2    -0.285464051590E+02   -0.98031E-01   -0.58822E-01  8256   0.976E+00    0.344E+00
DAV:   3    -0.284298374648E+02    0.11657E+00   -0.30216E-01  8208   0.739E+00    0.125E-01
DAV:   4    -0.284303515537E+02   -0.51409E-03   -0.92023E-03  7296   0.504E-01    0.162E-01
DAV:   5    -0.284301591662E+02    0.19239E-03   -0.54834E-04  9488   0.285E-01    0.151E-02
DAV:   6    -0.284301571629E+02    0.20032E-05   -0.21002E-05  7824   0.410E-02    0.283E-03
DAV:   7    -0.284301567643E+02    0.39866E-06   -0.84341E-07 10016   0.884E-03    0.139E-03
DAV:   8    -0.284301565505E+02    0.21378E-06   -0.53164E-08  8048   0.194E-03    0.866E-04
DAV:   9    -0.284301564640E+02    0.86474E-07   -0.76821E-09  5504   0.104E-03    0.203E-04
DAV:  10    -0.284301564390E+02    0.24990E-07   -0.42271E-09  4256   0.356E-04    0.278E-05
DAV:  11    -0.284301564404E+02   -0.13315E-08   -0.53080E-10  4016   0.192E-04
   4 F= -.28430156E+02 E0= -.28429607E+02  d E =-.169517E+01  mag=     0.0000
       N       E                     dE             d eps       ncg     rms          rms(c)
DAV:   1    -0.284311029718E+02   -0.94653E-03   -0.65052E-03  7472   0.111E+00    0.353E-01
DAV:   2    -0.284362597712E+02   -0.51568E-02   -0.30307E-02  8240   0.221E+00    0.811E-01
DAV:   3    -0.284301549603E+02    0.61048E-02   -0.15980E-02  8240   0.167E+00    0.348E-02
DAV:   4    -0.284301718366E+02   -0.16876E-04   -0.41904E-04  7248   0.111E-01    0.296E-02
DAV:   5    -0.284301657992E+02    0.60374E-05   -0.17210E-05  9504   0.501E-02    0.340E-03
DAV:   6    -0.284301655649E+02    0.23432E-06   -0.74282E-07  7584   0.722E-03    0.553E-04
DAV:   7    -0.284301654948E+02    0.70091E-07   -0.26419E-08  7056   0.149E-03    0.338E-04
DAV:   8    -0.284301654526E+02    0.42219E-07   -0.48843E-09  4400   0.768E-04    0.103E-04
DAV:   9    -0.284301654323E+02    0.20266E-07   -0.13442E-09  4208   0.281E-04    0.726E-05
DAV:  10    -0.284301654331E+02   -0.80217E-09   -0.49321E-10  3808   0.246E-04
   5 F= -.28430165E+02 E0= -.28429617E+02  d E =-.169518E+01  mag=    -0.0000
       N       E                     dE             d eps       ncg     rms          rms(c)
DAV:   1    -0.282762358682E+02    0.15393E+00   -0.60790E+00 10064   0.879E+01    0.210E+00
DAV:   2    -0.285722387205E+02   -0.29600E+00   -0.28623E+00  8176   0.155E+01    0.320E+00
DAV:   3    -0.284796240446E+02    0.92615E-01   -0.34047E-01  8368   0.799E+00    0.815E-01
DAV:   4    -0.284718290766E+02    0.77950E-02   -0.21639E-02 10016   0.144E+00    0.228E-01
DAV:   5    -0.284711712412E+02    0.65784E-03   -0.20015E-03  9520   0.400E-01    0.569E-02
DAV:   6    -0.284711749911E+02   -0.37499E-05   -0.19681E-04  8000   0.142E-01    0.213E-02
DAV:   7    -0.284711773846E+02   -0.23934E-05   -0.14354E-05  8688   0.434E-02    0.632E-03
DAV:   8    -0.284711771678E+02    0.21674E-06   -0.13066E-06  8736   0.145E-02    0.103E-03
DAV:   9    -0.284711770997E+02    0.68067E-07   -0.10855E-07  9408   0.396E-03    0.600E-04
DAV:  10    -0.284711770728E+02    0.26976E-07   -0.16723E-08  4800   0.190E-03    0.233E-04
DAV:  11    -0.284711770717E+02    0.10596E-08   -0.38882E-09  4480   0.807E-04
   6 F= -.28471177E+02 E0= -.28470756E+02  d E =-.410116E-01  mag=    -0.0000
       N       E                     dE             d eps       ncg     rms          rms(c)
DAV:   1    -0.276343955807E+02    0.83678E+00   -0.56956E+01 11792   0.244E+02    0.615E+00
DAV:   2    -0.295207889150E+02   -0.18864E+01   -0.18202E+01  8176   0.435E+01    0.934E+00
DAV:   3    -0.285880928322E+02    0.93270E+00   -0.28322E+00  8384   0.240E+01    0.204E+00
DAV:   4    -0.285310247904E+02    0.57068E-01   -0.19482E-01  8960   0.296E+00    0.660E-01
DAV:   5    -0.285272842797E+02    0.37405E-02   -0.17488E-02  8864   0.133E+00    0.154E-01
DAV:   6    -0.285272944780E+02   -0.10198E-04   -0.16698E-03  8240   0.498E-01    0.853E-02
DAV:   7    -0.285272716396E+02    0.22838E-04   -0.24217E-04  8512   0.200E-01    0.226E-02
DAV:   8    -0.285272714498E+02    0.18973E-06   -0.24597E-05  9072   0.576E-02    0.450E-03
DAV:   9    -0.285272709525E+02    0.49735E-06   -0.14221E-06  8688   0.129E-02    0.988E-04
DAV:  10    -0.285272708710E+02    0.81486E-07   -0.97954E-08  8176   0.269E-03    0.462E-04
DAV:  11    -0.285272708479E+02    0.23069E-07   -0.12216E-08  4912   0.136E-03    0.116E-04
DAV:  12    -0.285272708443E+02    0.36607E-08   -0.33497E-09  4336   0.604E-04
   7 F= -.28527271E+02 E0= -.28527254E+02  d E =-.971054E-01  mag=     0.0000
       N       E                     dE             d eps       ncg     rms          rms(c)
DAV:   1    -0.285051971649E+02    0.22074E-01   -0.72974E-01 10048   0.305E+01    0.728E-01
DAV:   2    -0.285400349438E+02   -0.34838E-01   -0.34181E-01  8208   0.540E+00    0.110E+00
DAV:   3    -0.285290882737E+02    0.10947E-01   -0.41198E-02  8288   0.280E+00    0.296E-01
DAV:   4    -0.285280429387E+02    0.10453E-02   -0.26197E-03  9936   0.542E-01    0.823E-02
DAV:   5    -0.285279550611E+02    0.87878E-04   -0.28079E-04  9664   0.149E-01    0.182E-02
DAV:   6    -0.285279559150E+02   -0.85389E-06   -0.26934E-05  7984   0.550E-02    0.795E-03
DAV:   7    -0.285279559604E+02   -0.45455E-07   -0.19999E-06  9104   0.162E-02    0.188E-03
DAV:   8    -0.285279558943E+02    0.66145E-07   -0.13343E-07  8272   0.427E-03    0.414E-04
DAV:   9    -0.285279558684E+02    0.25902E-07   -0.77587E-09  4784   0.114E-03    0.174E-04
DAV:  10    -0.285279558599E+02    0.85147E-08   -0.32016E-09  4112   0.632E-04
   8 F= -.28527956E+02 E0= -.28527906E+02  d E =-.977904E-01  mag=    -0.0000
       N       E                     dE             d eps       ncg     rms          rms(c)
DAV:   1    -0.284771557512E+02    0.50800E-01   -0.99000E+00  8576   0.107E+02    0.599E+00
DAV:   2    -0.298966310201E+02   -0.14195E+01   -0.10663E+01  8480   0.391E+01    0.124E+01
DAV:   3    -0.285726214999E+02    0.13240E+01   -0.42097E+00  8160   0.265E+01    0.202E+00
DAV:   4    -0.285474317907E+02    0.25190E-01   -0.15064E-01  7952   0.409E+00    0.745E-01
DAV:   5    -0.285421419812E+02    0.52898E-02   -0.13868E-02 10240   0.135E+00    0.113E-01
DAV:   6    -0.285420724998E+02    0.69481E-04   -0.14758E-03  8256   0.430E-01    0.800E-02
DAV:   7    -0.285420407144E+02    0.31785E-04   -0.13960E-04  8624   0.155E-01    0.152E-02
DAV:   8    -0.285420435992E+02   -0.28848E-05   -0.98473E-06  8192   0.293E-02    0.383E-03
DAV:   9    -0.285420438736E+02   -0.27445E-06   -0.63771E-07  9504   0.964E-03    0.176E-03
DAV:  10    -0.285420438860E+02   -0.12394E-07   -0.76576E-08  8096   0.286E-03    0.475E-04
DAV:  11    -0.285420439082E+02   -0.22192E-07   -0.70066E-09  4800   0.132E-03    0.583E-05
DAV:  12    -0.285420439077E+02    0.48567E-09   -0.21385E-09  4256   0.473E-04
   9 F= -.28542044E+02 E0= -.28542099E+02  d E =-.140880E-01  mag=     0.0000
       N       E                     dE             d eps       ncg     rms          rms(c)
DAV:   1    -0.285401912252E+02    0.18527E-02   -0.35121E-01  8704   0.205E+01    0.118E+00
DAV:   2    -0.285952177015E+02   -0.55026E-01   -0.40184E-01  8384   0.768E+00    0.235E+00
DAV:   3    -0.285431439547E+02    0.52074E-01   -0.16172E-01  8176   0.538E+00    0.322E-01
DAV:   4    -0.285425569280E+02    0.58703E-03   -0.47340E-03  7632   0.645E-01    0.133E-01
DAV:   5    -0.285423926167E+02    0.16431E-03   -0.50591E-04  9680   0.247E-01    0.220E-02
DAV:   6    -0.285423915068E+02    0.11098E-05   -0.58263E-05  8528   0.860E-02    0.164E-02
DAV:   7    -0.285423899841E+02    0.15227E-05   -0.71224E-06  8640   0.358E-02    0.321E-03
DAV:   8    -0.285423903169E+02   -0.33279E-06   -0.42462E-07  8208   0.587E-03    0.797E-04
DAV:   9    -0.285423903914E+02   -0.74445E-07   -0.24574E-08  6976   0.187E-03    0.357E-04
DAV:  10    -0.285423903989E+02   -0.75406E-08   -0.40420E-09  4160   0.664E-04
  10 F= -.28542390E+02 E0= -.28542464E+02  d E =-.144345E-01  mag=    -0.0000
       N       E                     dE             d eps       ncg     rms          rms(c)
DAV:   1    -0.285998125678E+02   -0.57422E-01   -0.83500E+00  8736   0.970E+01    0.672E+00
DAV:   2    -0.301574361074E+02   -0.15576E+01   -0.11024E+01  8144   0.427E+01    0.117E+01
DAV:   3    -0.285522919163E+02    0.16051E+01   -0.43478E+00  8112   0.309E+01    0.114E+00
DAV:   4    -0.285493352677E+02    0.29566E-02   -0.19228E-01  7552   0.244E+00    0.796E-01
DAV:   5    -0.285442261282E+02    0.51091E-02   -0.22699E-02  9168   0.183E+00    0.214E-01
DAV:   6    -0.285438959774E+02    0.33015E-03   -0.32635E-03  8368   0.741E-01    0.102E-01
DAV:   7    -0.285438296063E+02    0.66371E-04   -0.35140E-04  8880   0.251E-01    0.228E-02
DAV:   8    -0.285438234224E+02    0.61839E-05   -0.21306E-05  9024   0.498E-02    0.788E-03
DAV:   9    -0.285438222587E+02    0.11637E-05   -0.26365E-06 10656   0.150E-02    0.640E-04
DAV:  10    -0.285438222293E+02    0.29384E-07   -0.18586E-07  7888   0.376E-03    0.292E-04
DAV:  11    -0.285438221942E+02    0.35083E-07   -0.76450E-09  5616   0.108E-03    0.237E-04
DAV:  12    -0.285438221929E+02    0.12906E-08   -0.28702E-09  4288   0.699E-04
  11 F= -.28543822E+02 E0= -.28543984E+02  d E =-.143179E-02  mag=     0.0000
       N       E                     dE             d eps       ncg     rms          rms(c)
DAV:   1    -0.285539159497E+02   -0.10094E-01   -0.16443E+00  8816   0.415E+01    0.271E+00
DAV:   2    -0.288125143897E+02   -0.25860E+00   -0.19804E+00  8400   0.175E+01    0.536E+00
DAV:   3    -0.285513845071E+02    0.26113E+00   -0.82228E-01  8176   0.120E+01    0.767E-01
DAV:   4    -0.285469422833E+02    0.44422E-02   -0.26334E-02  7760   0.164E+00    0.221E-01
DAV:   5    -0.285464705172E+02    0.47177E-03   -0.19189E-03 11008   0.406E-01    0.446E-02
DAV:   6    -0.285464649299E+02    0.55872E-05   -0.28962E-04  8208   0.217E-01    0.451E-02
DAV:   7    -0.285464524215E+02    0.12508E-04   -0.43357E-05  8656   0.862E-02    0.472E-03
DAV:   8    -0.285464531003E+02   -0.67879E-06   -0.19151E-06  8016   0.128E-02    0.280E-03
DAV:   9    -0.285464532391E+02   -0.13874E-06   -0.19841E-07  9584   0.546E-03    0.264E-04
DAV:  10    -0.285464532442E+02   -0.50850E-08   -0.97798E-09  4720   0.135E-03
  12 F= -.28546453E+02 E0= -.28546697E+02  d E =-.406285E-02  mag=    -0.0000
       N       E                     dE             d eps       ncg     rms          rms(c)
DAV:   1    -0.285342756570E+02    0.12178E-01   -0.44812E-01 10176   0.231E+01    0.577E-01
DAV:   2    -0.285531487071E+02   -0.18873E-01   -0.19850E-01  8032   0.422E+00    0.743E-01
DAV:   3    -0.285483560880E+02    0.47926E-02   -0.21497E-02  8256   0.202E+00    0.276E-01
DAV:   4    -0.285473708269E+02    0.98526E-03   -0.22976E-03  9456   0.549E-01    0.536E-02
DAV:   5    -0.285473396854E+02    0.31141E-04   -0.20735E-04  8304   0.129E-01    0.144E-02
DAV:   6    -0.285473389965E+02    0.68895E-06   -0.15465E-05  8336   0.406E-02    0.731E-03
DAV:   7    -0.285473391851E+02   -0.18861E-06   -0.18007E-06  8352   0.106E-02    0.158E-03
DAV:   8    -0.285473392660E+02   -0.80929E-07   -0.11741E-07  8320   0.370E-03    0.426E-04
DAV:   9    -0.285473392909E+02   -0.24854E-07   -0.10974E-08  4864   0.131E-03    0.131E-04
DAV:  10    -0.285473392977E+02   -0.68021E-08   -0.23619E-09  4336   0.523E-04
  13 F= -.28547339E+02 E0= -.28547612E+02  d E =-.886054E-03  mag=     0.0000
       N       E                     dE             d eps       ncg     rms          rms(c)
DAV:   1    -0.285451725904E+02    0.21667E-02   -0.78246E-02 10208   0.966E+00    0.241E-01
DAV:   2    -0.285484256551E+02   -0.32531E-02   -0.34342E-02  8048   0.176E+00    0.307E-01
DAV:   3    -0.285475981194E+02    0.82754E-03   -0.36753E-03  8272   0.836E-01    0.114E-01
DAV:   4    -0.285474278895E+02    0.17023E-03   -0.38925E-04  9488   0.227E-01    0.211E-02
DAV:   5    -0.285474233892E+02    0.45003E-05   -0.35650E-05  8320   0.530E-02    0.592E-03
DAV:   6    -0.285474232539E+02    0.13529E-06   -0.24639E-06  8304   0.163E-02    0.300E-03
DAV:   7    -0.285474232925E+02   -0.38625E-07   -0.30730E-07  8336   0.440E-03    0.656E-04
DAV:   8    -0.285474233176E+02   -0.25037E-07   -0.19598E-08  6192   0.164E-03    0.188E-04
DAV:   9    -0.285474233270E+02   -0.94215E-08   -0.37357E-09  4368   0.731E-04
  14 F= -.28547423E+02 E0= -.28547704E+02  d E =-.970083E-03  mag=     0.0000
       N       E                     dE             d eps       ncg     rms          rms(c)
DAV:   1    -0.285454424318E+02    0.19809E-02   -0.74157E-02 10080   0.946E+00    0.160E-01
DAV:   2    -0.285478158688E+02   -0.23734E-02   -0.26839E-02  7456   0.131E+00    0.108E-01
DAV:   3    -0.285477990928E+02    0.16776E-04   -0.10718E-03  9520   0.401E-01    0.101E-01
DAV:   4    -0.285476862674E+02    0.11283E-03   -0.34464E-04  8736   0.238E-01    0.261E-02
DAV:   5    -0.285476778488E+02    0.84186E-05   -0.31965E-05  8800   0.634E-02    0.612E-03
DAV:   6    -0.285476775987E+02    0.25012E-06   -0.30689E-06  9264   0.142E-02    0.235E-03
DAV:   7    -0.285476776534E+02   -0.54718E-07   -0.22676E-07  8224   0.483E-03    0.641E-04
DAV:   8    -0.285476776564E+02   -0.30068E-08   -0.13452E-08  4800   0.130E-03
  15 F= -.28547678E+02 E0= -.28547998E+02  d E =-.254329E-03  mag=    -0.0000
       N       E                     dE             d eps       ncg     rms          rms(c)
DAV:   1    -0.285468865170E+02    0.79114E-03   -0.27562E-02 10064   0.577E+00    0.978E-02
DAV:   2    -0.285477719241E+02   -0.88541E-03   -0.10008E-02  7440   0.801E-01    0.655E-02
DAV:   3    -0.285477654917E+02    0.64324E-05   -0.39825E-04  9584   0.245E-01    0.616E-02
DAV:   4    -0.285477238762E+02    0.41615E-04   -0.12841E-04  8784   0.146E-01    0.160E-02
DAV:   5    -0.285477206378E+02    0.32384E-05   -0.11919E-05  8816   0.389E-02    0.375E-03
DAV:   6    -0.285477205329E+02    0.10495E-06   -0.11471E-06  9256   0.872E-03    0.144E-03
DAV:   7    -0.285477205565E+02   -0.23648E-07   -0.84631E-08  8208   0.295E-03    0.393E-04
DAV:   8    -0.285477205572E+02   -0.74397E-09   -0.50102E-09  4288   0.797E-04
  16 F= -.28547721E+02 E0= -.28548062E+02  d E =-.297230E-03  mag=     0.0000
       N       E                     dE             d eps       ncg     rms          rms(c)
DAV:   1    -0.285479162626E+02   -0.19571E-03   -0.59925E-03  8400   0.242E+00    0.209E-01
DAV:   2    -0.285494042897E+02   -0.14880E-02   -0.10555E-02  8272   0.132E+00    0.406E-01
DAV:   3    -0.285477335477E+02    0.16707E-02   -0.49614E-03  8160   0.960E-01    0.388E-02
DAV:   4    -0.285477294056E+02    0.41422E-05   -0.13313E-04  7360   0.871E-02    0.189E-02
DAV:   5    -0.285477261976E+02    0.32080E-05   -0.10515E-05  9392   0.373E-02    0.352E-03
DAV:   6    -0.285477259157E+02    0.28187E-06   -0.14854E-06  8208   0.148E-02    0.300E-03
DAV:   7    -0.285477258120E+02    0.10367E-06   -0.25558E-07  8456   0.684E-03    0.449E-04
DAV:   8    -0.285477257704E+02    0.41604E-07   -0.10301E-08  4288   0.110E-03    0.118E-04
DAV:   9    -0.285477257555E+02    0.14941E-07   -0.20145E-09  4048   0.381E-04    0.131E-04
DAV:  10    -0.285477257535E+02    0.20082E-08   -0.81486E-10  3840   0.358E-04
  17 F= -.28547726E+02 E0= -.28548072E+02  d E =-.519622E-05  mag=    -0.0000
       N       E                     dE             d eps       ncg     rms          rms(c)
DAV:   1    -0.285477320233E+02   -0.62678E-05   -0.18492E-04  8352   0.425E-01    0.367E-02
DAV:   2    -0.285477764808E+02   -0.44458E-04   -0.32443E-04  8272   0.231E-01    0.714E-02
DAV:   3    -0.285477259442E+02    0.50537E-04   -0.15289E-04  8176   0.168E-01    0.696E-03
DAV:   4    -0.285477259100E+02    0.34185E-07   -0.40841E-06  7312   0.156E-02    0.325E-03
DAV:   5    -0.285477258985E+02    0.11481E-07   -0.30301E-07  9216   0.628E-03    0.587E-04
DAV:   6    -0.285477259304E+02   -0.31851E-07   -0.41045E-08  6576   0.247E-03    0.508E-04
DAV:   7    -0.285477259352E+02   -0.47949E-08   -0.72798E-09  3904   0.128E-03
  18 F= -.28547726E+02 E0= -.28548072E+02  d E =-.537793E-05  mag=    -0.0000
