   5   5   0   0
  0.1174210E+02  0.7174307E-09  0.7174307E-09  0.7174307E-09  0.5000000E-15
  1.000000000000000E-004
  CAR 
 unknown system                          
     24.94589465    -58.48183007  301      8.94482498      1.00000000
    -58.482  0.0000E+00  0.0000E+00  0.0000E+00  0.0000E+00
    -58.204  0.0000E+00  0.0000E+00  0.0000E+00  0.0000E+00
    -57.926  0.0000E+00  0.0000E+00  0.0000E+00  0.0000E+00
    -57.648  0.0000E+00  0.0000E+00  0.0000E+00  0.0000E+00
    -57.369  0.0000E+00  0.0000E+00  0.0000E+00  0.0000E+00
    -57.091  0.0000E+00  0.0000E+00  0.0000E+00  0.0000E+00
    -56.813  0.0000E+00  0.0000E+00  0.0000E+00  0.0000E+00
    -56.535  0.0000E+00  0.0000E+00  0.0000E+00  0.0000E+00
    -56.257  0.0000E+00  0.0000E+00  0.0000E+00  0.0000E+00
    -55.979  0.0000E+00  0.0000E+00  0.0000E+00  0.0000E+00
    -55.701  0.0000E+00  0.0000E+00  0.0000E+00  0.0000E+00
    -55.423  0.0000E+00  0.0000E+00  0.0000E+00  0.0000E+00
    -55.145  0.0000E+00  0.0000E+00  0.0000E+00  0.0000E+00
    -54.867  0.0000E+00  0.0000E+00  0.0000E+00  0.0000E+00
    -54.589  0.0000E+00  0.0000E+00  0.3000E+01  0.3000E+01
    -54.310  0.0000E+00  0.0000E+00  0.9000E+01  0.9000E+01
    -54.032  0.0000E+00  0.0000E+00  0.9000E+01  0.9000E+01
    -53.754  0.0000E+00  0.0000E+00  0.9000E+01  0.9000E+01
    -53.476  0.0000E+00  0.0000E+00  0.9000E+01  0.9000E+01
    -53.198  0.0000E+00  0.0000E+00  0.9000E+01  0.9000E+01
    -52.920  0.0000E+00  0.0000E+00  0.9000E+01  0.9000E+01
    -52.642  0.0000E+00  0.0000E+00  0.9000E+01  0.9000E+01
    -52.364  0.0000E+00  0.0000E+00  0.9000E+01  0.9000E+01
    -52.086  0.0000E+00  0.0000E+00  0.9000E+01  0.9000E+01
    -51.808  0.0000E+00  0.0000E+00  0.9000E+01  0.9000E+01
    -51.530  0.0000E+00  0.0000E+00  0.9000E+01  0.9000E+01
    -51.251  0.0000E+00  0.0000E+00  0.9000E+01  0.9000E+01
    -50.973  0.0000E+00  0.0000E+00  0.9000E+01  0.9000E+01
    -50.695  0.0000E+00  0.0000E+00  0.9000E+01  0.9000E+01
    -50.417  0.0000E+00  0.0000E+00  0.9000E+01  0.9000E+01
    -50.139  0.0000E+00  0.0000E+00  0.9000E+01  0.9000E+01
    -49.861  0.0000E+00  0.0000E+00  0.9000E+01  0.9000E+01
    -49.583  0.0000E+00  0.0000E+00  0.9000E+01  0.9000E+01
    -49.305  0.0000E+00  0.0000E+00  0.9000E+01  0.9000E+01
    -49.027  0.0000E+00  0.0000E+00  0.9000E+01  0.9000E+01
    -48.749  0.0000E+00  0.0000E+00  0.9000E+01  0.9000E+01
    -48.471  0.0000E+00  0.0000E+00  0.9000E+01  0.9000E+01
    -48.192  0.0000E+00  0.0000E+00  0.9000E+01  0.9000E+01
    -47.914  0.0000E+00  0.0000E+00  0.9000E+01  0.9000E+01
    -47.636  0.0000E+00  0.0000E+00  0.9000E+01  0.9000E+01
    -47.358  0.0000E+00  0.0000E+00  0.9000E+01  0.9000E+01
    -47.080  0.0000E+00  0.0000E+00  0.9000E+01  0.9000E+01
    -46.802  0.0000E+00  0.0000E+00  0.9000E+01  0.9000E+01
    -46.524  0.0000E+00  0.0000E+00  0.9000E+01  0.9000E+01
    -46.246  0.0000E+00  0.0000E+00  0.9000E+01  0.9000E+01
    -45.968  0.0000E+00  0.0000E+00  0.9000E+01  0.9000E+01
    -45.690  0.0000E+00  0.0000E+00  0.9000E+01  0.9000E+01
    -45.411  0.0000E+00  0.0000E+00  0.9000E+01  0.9000E+01
    -45.133  0.0000E+00  0.0000E+00  0.9000E+01  0.9000E+01
    -44.855  0.0000E+00  0.0000E+00  0.9000E+01  0.9000E+01
    -44.577  0.0000E+00  0.0000E+00  0.9000E+01  0.9000E+01
    -44.299  0.0000E+00  0.0000E+00  0.9000E+01  0.9000E+01
    -44.021  0.0000E+00  0.0000E+00  0.9000E+01  0.9000E+01
    -43.743  0.0000E+00  0.0000E+00  0.9000E+01  0.9000E+01
    -43.465  0.0000E+00  0.0000E+00  0.9000E+01  0.9000E+01
    -43.187  0.0000E+00  0.0000E+00  0.9000E+01  0.9000E+01
    -42.909  0.0000E+00  0.0000E+00  0.9000E+01  0.9000E+01
    -42.631  0.0000E+00  0.0000E+00  0.9000E+01  0.9000E+01
    -42.352  0.0000E+00  0.0000E+00  0.9000E+01  0.9000E+01
    -42.074  0.0000E+00  0.0000E+00  0.9000E+01  0.9000E+01
    -41.796  0.0000E+00  0.0000E+00  0.9000E+01  0.9000E+01
    -41.518  0.0000E+00  0.0000E+00  0.9000E+01  0.9000E+01
    -41.240  0.0000E+00  0.0000E+00  0.9000E+01  0.9000E+01
    -40.962  0.0000E+00  0.0000E+00  0.9000E+01  0.9000E+01
    -40.684  0.0000E+00  0.0000E+00  0.9000E+01  0.9000E+01
    -40.406  0.0000E+00  0.0000E+00  0.9000E+01  0.9000E+01
    -40.128  0.0000E+00  0.0000E+00  0.9000E+01  0.9000E+01
    -39.850  0.0000E+00  0.0000E+00  0.9000E+01  0.9000E+01
    -39.572  0.0000E+00  0.0000E+00  0.9000E+01  0.9000E+01
    -39.293  0.0000E+00  0.0000E+00  0.9000E+01  0.9000E+01
    -39.015  0.0000E+00  0.0000E+00  0.9000E+01  0.9000E+01
    -38.737  0.0000E+00  0.0000E+00  0.9000E+01  0.9000E+01
    -38.459  0.0000E+00  0.0000E+00  0.9000E+01  0.9000E+01
    -38.181  0.0000E+00  0.0000E+00  0.9000E+01  0.9000E+01
    -37.903  0.0000E+00  0.0000E+00  0.9000E+01  0.9000E+01
    -37.625  0.0000E+00  0.0000E+00  0.9000E+01  0.9000E+01
    -37.347  0.0000E+00  0.0000E+00  0.9000E+01  0.9000E+01
    -37.069  0.0000E+00  0.0000E+00  0.9000E+01  0.9000E+01
    -36.791  0.0000E+00  0.0000E+00  0.9000E+01  0.9000E+01
    -36.513  0.0000E+00  0.0000E+00  0.9000E+01  0.9000E+01
    -36.234  0.0000E+00  0.0000E+00  0.9000E+01  0.9000E+01
    -35.956  0.0000E+00  0.0000E+00  0.9000E+01  0.9000E+01
    -35.678  0.0000E+00  0.0000E+00  0.9000E+01  0.9000E+01
    -35.400  0.0000E+00  0.0000E+00  0.9000E+01  0.9000E+01
    -35.122  0.0000E+00  0.0000E+00  0.9000E+01  0.9000E+01
    -34.844  0.0000E+00  0.0000E+00  0.9000E+01  0.9000E+01
    -34.566  0.0000E+00  0.0000E+00  0.9000E+01  0.9000E+01
    -34.288  0.0000E+00  0.0000E+00  0.9000E+01  0.9000E+01
    -34.010  0.0000E+00  0.0000E+00  0.9000E+01  0.9000E+01
    -33.732  0.0000E+00  0.0000E+00  0.9000E+01  0.9000E+01
    -33.454  0.0000E+00  0.0000E+00  0.9000E+01  0.9000E+01
    -33.175  0.0000E+00  0.0000E+00  0.9000E+01  0.9000E+01
    -32.897  0.0000E+00  0.0000E+00  0.9000E+01  0.9000E+01
    -32.619  0.0000E+00  0.0000E+00  0.9000E+01  0.9000E+01
    -32.341  0.0000E+00  0.0000E+00  0.9000E+01  0.9000E+01
    -32.063  0.0000E+00  0.0000E+00  0.9000E+01  0.9000E+01
    -31.785  0.0000E+00  0.0000E+00  0.9000E+01  0.9000E+01
    -31.507  0.0000E+00  0.0000E+00  0.9000E+01  0.9000E+01
    -31.229  0.0000E+00  0.0000E+00  0.9000E+01  0.9000E+01
    -30.951  0.0000E+00  0.0000E+00  0.9000E+01  0.9000E+01
    -30.673  0.0000E+00  0.0000E+00  0.9000E+01  0.9000E+01
    -30.394  0.0000E+00  0.0000E+00  0.9000E+01  0.9000E+01
    -30.116  0.0000E+00  0.0000E+00  0.9000E+01  0.9000E+01
    -29.838  0.0000E+00  0.0000E+00  0.9000E+01  0.9000E+01
    -29.560  0.0000E+00  0.0000E+00  0.9000E+01  0.9000E+01
    -29.282  0.0000E+00  0.0000E+00  0.9000E+01  0.9000E+01
    -29.004  0.0000E+00  0.0000E+00  0.9000E+01  0.9000E+01
    -28.726  0.0000E+00  0.0000E+00  0.9000E+01  0.9000E+01
    -28.448  0.0000E+00  0.0000E+00  0.9000E+01  0.9000E+01
    -28.170  0.0000E+00  0.0000E+00  0.9000E+01  0.9000E+01
    -27.892  0.0000E+00  0.0000E+00  0.9000E+01  0.9000E+01
    -27.614  0.0000E+00  0.0000E+00  0.9000E+01  0.9000E+01
    -27.335  0.0000E+00  0.0000E+00  0.9000E+01  0.9000E+01
    -27.057  0.0000E+00  0.0000E+00  0.9000E+01  0.9000E+01
    -26.779  0.0000E+00  0.0000E+00  0.9000E+01  0.9000E+01
    -26.501  0.0000E+00  0.0000E+00  0.9000E+01  0.9000E+01
    -26.223  0.0000E+00  0.0000E+00  0.9000E+01  0.9000E+01
    -25.945  0.0000E+00  0.0000E+00  0.9000E+01  0.9000E+01
    -25.667  0.0000E+00  0.0000E+00  0.9000E+01  0.9000E+01
    -25.389  0.0000E+00  0.0000E+00  0.9000E+01  0.9000E+01
    -25.111  0.0000E+00  0.0000E+00  0.9000E+01  0.9000E+01
    -24.833  0.0000E+00  0.0000E+00  0.9000E+01  0.9000E+01
    -24.555  0.0000E+00  0.0000E+00  0.9000E+01  0.9000E+01
    -24.276  0.0000E+00  0.0000E+00  0.9000E+01  0.9000E+01
    -23.998  0.0000E+00  0.0000E+00  0.9000E+01  0.9000E+01
    -23.720  0.0000E+00  0.0000E+00  0.9000E+01  0.9000E+01
    -23.442  0.0000E+00  0.0000E+00  0.9000E+01  0.9000E+01
    -23.164  0.0000E+00  0.0000E+00  0.9000E+01  0.9000E+01
    -22.886  0.0000E+00  0.0000E+00  0.9000E+01  0.9000E+01
    -22.608  0.0000E+00  0.0000E+00  0.9000E+01  0.9000E+01
    -22.330  0.0000E+00  0.0000E+00  0.9000E+01  0.9000E+01
    -22.052  0.0000E+00  0.0000E+00  0.9000E+01  0.9000E+01
    -21.774  0.0000E+00  0.0000E+00  0.9000E+01  0.9000E+01
    -21.496  0.0000E+00  0.0000E+00  0.9000E+01  0.9000E+01
    -21.217  0.0000E+00  0.0000E+00  0.9000E+01  0.9000E+01
    -20.939  0.0000E+00  0.0000E+00  0.9000E+01  0.9000E+01
    -20.661  0.0000E+00  0.0000E+00  0.9000E+01  0.9000E+01
    -20.383  0.0000E+00  0.0000E+00  0.9000E+01  0.9000E+01
    -20.105  0.0000E+00  0.0000E+00  0.9000E+01  0.9000E+01
    -19.827  0.0000E+00  0.0000E+00  0.9000E+01  0.9000E+01
    -19.549  0.0000E+00  0.0000E+00  0.9000E+01  0.9000E+01
    -19.271  0.0000E+00  0.0000E+00  0.9000E+01  0.9000E+01
    -18.993  0.0000E+00  0.0000E+00  0.9000E+01  0.9000E+01
    -18.715  0.0000E+00  0.0000E+00  0.9000E+01  0.9000E+01
    -18.437  0.0000E+00  0.0000E+00  0.9000E+01  0.9000E+01
    -18.158  0.0000E+00  0.0000E+00  0.9000E+01  0.9000E+01
    -17.880  0.0000E+00  0.0000E+00  0.9000E+01  0.9000E+01
    -17.602  0.0000E+00  0.0000E+00  0.9000E+01  0.9000E+01
    -17.324  0.0000E+00  0.0000E+00  0.9000E+01  0.9000E+01
    -17.046  0.0000E+00  0.0000E+00  0.9000E+01  0.9000E+01
    -16.768  0.0000E+00  0.0000E+00  0.9000E+01  0.9000E+01
    -16.490  0.0000E+00  0.0000E+00  0.9000E+01  0.9000E+01
    -16.212  0.0000E+00  0.0000E+00  0.9000E+01  0.9000E+01
    -15.934  0.0000E+00  0.0000E+00  0.9000E+01  0.9000E+01
    -15.656  0.0000E+00  0.0000E+00  0.9000E+01  0.9000E+01
    -15.378  0.0000E+00  0.0000E+00  0.9000E+01  0.9000E+01
    -15.099  0.0000E+00  0.0000E+00  0.9000E+01  0.9000E+01
    -14.821  0.0000E+00  0.0000E+00  0.9000E+01  0.9000E+01
    -14.543  0.0000E+00  0.0000E+00  0.9000E+01  0.9000E+01
    -14.265  0.0000E+00  0.0000E+00  0.9000E+01  0.9000E+01
    -13.987  0.0000E+00  0.0000E+00  0.9000E+01  0.9000E+01
    -13.709  0.0000E+00  0.0000E+00  0.9000E+01  0.9000E+01
    -13.431  0.0000E+00  0.0000E+00  0.9000E+01  0.9000E+01
    -13.153  0.0000E+00  0.0000E+00  0.9000E+01  0.9000E+01
    -12.875  0.0000E+00  0.0000E+00  0.9000E+01  0.9000E+01
    -12.597  0.0000E+00  0.0000E+00  0.9000E+01  0.9000E+01
    -12.318  0.0000E+00  0.0000E+00  0.9000E+01  0.9000E+01
    -12.040  0.0000E+00  0.0000E+00  0.9000E+01  0.9000E+01
    -11.762  0.0000E+00  0.0000E+00  0.9000E+01  0.9000E+01
    -11.484  0.0000E+00  0.0000E+00  0.9000E+01  0.9000E+01
    -11.206  0.0000E+00  0.0000E+00  0.9000E+01  0.9000E+01
    -10.928  0.0000E+00  0.0000E+00  0.9000E+01  0.9000E+01
    -10.650  0.0000E+00  0.0000E+00  0.9000E+01  0.9000E+01
    -10.372  0.0000E+00  0.0000E+00  0.9000E+01  0.9000E+01
    -10.094  0.0000E+00  0.0000E+00  0.9000E+01  0.9000E+01
     -9.816  0.0000E+00  0.0000E+00  0.9000E+01  0.9000E+01
     -9.538  0.0000E+00  0.0000E+00  0.9000E+01  0.9000E+01
     -9.259  0.0000E+00  0.0000E+00  0.9000E+01  0.9000E+01
     -8.981  0.0000E+00  0.0000E+00  0.9000E+01  0.9000E+01
     -8.703  0.0000E+00  0.0000E+00  0.9000E+01  0.9000E+01
     -8.425  0.0000E+00  0.0000E+00  0.9000E+01  0.9000E+01
     -8.147  0.0000E+00  0.0000E+00  0.9000E+01  0.9000E+01
     -7.869  0.0000E+00  0.0000E+00  0.9000E+01  0.9000E+01
     -7.591  0.0000E+00  0.0000E+00  0.9000E+01  0.9000E+01
     -7.313  0.0000E+00  0.0000E+00  0.9000E+01  0.9000E+01
     -7.035  0.0000E+00  0.0000E+00  0.9000E+01  0.9000E+01
     -6.757  0.0000E+00  0.0000E+00  0.9000E+01  0.9000E+01
     -6.479  0.0000E+00  0.0000E+00  0.9000E+01  0.9000E+01
     -6.200  0.0000E+00  0.0000E+00  0.9000E+01  0.9000E+01
     -5.922  0.0000E+00  0.0000E+00  0.9000E+01  0.9000E+01
     -5.644  0.0000E+00  0.0000E+00  0.9000E+01  0.9000E+01
     -5.366  0.0000E+00  0.0000E+00  0.9000E+01  0.9000E+01
     -5.088  0.0000E+00  0.0000E+00  0.9000E+01  0.9000E+01
     -4.810  0.0000E+00  0.0000E+00  0.9000E+01  0.9000E+01
     -4.532  0.0000E+00  0.0000E+00  0.9000E+01  0.9000E+01
     -4.254  0.0000E+00  0.0000E+00  0.9000E+01  0.9000E+01
     -3.976  0.0000E+00  0.0000E+00  0.9000E+01  0.9000E+01
     -3.698  0.0000E+00  0.0000E+00  0.9000E+01  0.9000E+01
     -3.420  0.0000E+00  0.0000E+00  0.9000E+01  0.9000E+01
     -3.141  0.0000E+00  0.0000E+00  0.9000E+01  0.9000E+01
     -2.863  0.0000E+00  0.0000E+00  0.9000E+01  0.9000E+01
     -2.585  0.0000E+00  0.0000E+00  0.9000E+01  0.9000E+01
     -2.307  0.0000E+00  0.0000E+00  0.9000E+01  0.9000E+01
     -2.029  0.0000E+00  0.0000E+00  0.9000E+01  0.9000E+01
     -1.751  0.4756E-02  0.4756E-02  0.9000E+01  0.9000E+01
     -1.473  0.7146E-01  0.7146E-01  0.9010E+01  0.9010E+01
     -1.195  0.1680E+00  0.1680E+00  0.9043E+01  0.9043E+01
     -0.917  0.1979E+00  0.1979E+00  0.9096E+01  0.9096E+01
     -0.639  0.1755E+00  0.1755E+00  0.9147E+01  0.9147E+01
     -0.361  0.1983E+00  0.1983E+00  0.9198E+01  0.9198E+01
     -0.082  0.2630E+00  0.2630E+00  0.9262E+01  0.9262E+01
      0.196  0.3033E+00  0.3033E+00  0.9341E+01  0.9341E+01
      0.474  0.3324E+00  0.3324E+00  0.9430E+01  0.9430E+01
      0.752  0.3695E+00  0.3695E+00  0.9527E+01  0.9527E+01
      1.030  0.4286E+00  0.4286E+00  0.9637E+01  0.9637E+01
      1.308  0.4495E+00  0.4495E+00  0.9760E+01  0.9760E+01
      1.586  0.4710E+00  0.4710E+00  0.9888E+01  0.9888E+01
      1.864  0.4957E+00  0.4957E+00  0.1002E+02  0.1002E+02
      2.142  0.5347E+00  0.5347E+00  0.1017E+02  0.1017E+02
      2.420  0.6130E+00  0.6130E+00  0.1033E+02  0.1033E+02
      2.699  0.6172E+00  0.6172E+00  0.1050E+02  0.1050E+02
      2.977  0.6399E+00  0.6399E+00  0.1067E+02  0.1067E+02
      3.255  0.6024E+00  0.6024E+00  0.1085E+02  0.1085E+02
      3.533  0.6165E+00  0.6165E+00  0.1101E+02  0.1101E+02
      3.811  0.7763E+00  0.7763E+00  0.1120E+02  0.1120E+02
      4.089  0.9359E+00  0.9359E+00  0.1144E+02  0.1144E+02
      4.367  0.1102E+01  0.1102E+01  0.1172E+02  0.1172E+02
      4.645  0.1088E+01  0.1088E+01  0.1204E+02  0.1204E+02
      4.923  0.1297E+01  0.1297E+01  0.1237E+02  0.1237E+02
      5.201  0.1742E+01  0.1742E+01  0.1274E+02  0.1274E+02
      5.479  0.3568E+01  0.3568E+01  0.1344E+02  0.1344E+02
      5.758  0.1653E+01  0.1653E+01  0.1424E+02  0.1424E+02
      6.036  0.4460E+01  0.4460E+01  0.1516E+02  0.1516E+02
      6.314  0.5429E+01  0.5429E+01  0.1661E+02  0.1661E+02
      6.592  0.4083E+01  0.4083E+01  0.1778E+02  0.1778E+02
      6.870  0.3853E+01  0.3853E+01  0.1889E+02  0.1889E+02
      7.148  0.8080E+01  0.8080E+01  0.2050E+02  0.2050E+02
      7.426  0.8556E+01  0.8556E+01  0.2226E+02  0.2226E+02
      7.704  0.2947E+01  0.2947E+01  0.2341E+02  0.2341E+02
      7.982  0.3823E+01  0.3823E+01  0.2413E+02  0.2413E+02
      8.260  0.2802E+01  0.2802E+01  0.2567E+02  0.2567E+02
      8.538  0.2200E+01  0.2200E+01  0.2635E+02  0.2635E+02
      8.817  0.1197E+01  0.1197E+01  0.2683E+02  0.2683E+02
      9.095  0.1224E+01  0.1224E+01  0.2719E+02  0.2719E+02
      9.373  0.8412E+00  0.8412E+00  0.2746E+02  0.2746E+02
      9.651  0.1130E+01  0.1130E+01  0.2773E+02  0.2773E+02
      9.929  0.8395E+00  0.8395E+00  0.2801E+02  0.2801E+02
     10.207  0.7478E+00  0.7478E+00  0.2822E+02  0.2822E+02
     10.485  0.8286E+00  0.8286E+00  0.2844E+02  0.2844E+02
     10.763  0.5394E+00  0.5394E+00  0.2864E+02  0.2864E+02
     11.041  0.3315E+00  0.3315E+00  0.2875E+02  0.2875E+02
     11.319  0.2780E+00  0.2780E+00  0.2883E+02  0.2883E+02
     11.597  0.3707E+00  0.3707E+00  0.2891E+02  0.2891E+02
     11.876  0.7362E+00  0.7362E+00  0.2909E+02  0.2909E+02
     12.154  0.6912E+00  0.6912E+00  0.2929E+02  0.2929E+02
     12.432  0.7877E+00  0.7877E+00  0.2949E+02  0.2949E+02
     12.710  0.1403E+01  0.1403E+01  0.2979E+02  0.2979E+02
     12.988  0.1155E+01  0.1155E+01  0.3015E+02  0.3015E+02
     13.266  0.1020E+01  0.1020E+01  0.3046E+02  0.3046E+02
     13.544  0.8566E+00  0.8566E+00  0.3072E+02  0.3072E+02
     13.822  0.8464E+00  0.8464E+00  0.3096E+02  0.3096E+02
     14.100  0.8460E+00  0.8460E+00  0.3119E+02  0.3119E+02
     14.378  0.7953E+00  0.7953E+00  0.3142E+02  0.3142E+02
     14.656  0.9666E+00  0.9666E+00  0.3166E+02  0.3166E+02
     14.935  0.9810E+00  0.9810E+00  0.3193E+02  0.3193E+02
     15.213  0.1045E+01  0.1045E+01  0.3221E+02  0.3221E+02
     15.491  0.9846E+00  0.9846E+00  0.3250E+02  0.3250E+02
     15.769  0.8446E+00  0.8446E+00  0.3275E+02  0.3275E+02
     16.047  0.9162E+00  0.9162E+00  0.3299E+02  0.3299E+02
     16.325  0.9878E+00  0.9878E+00  0.3326E+02  0.3326E+02
     16.603  0.9515E+00  0.9515E+00  0.3353E+02  0.3353E+02
     16.881  0.9721E+00  0.9721E+00  0.3380E+02  0.3380E+02
     17.159  0.1027E+01  0.1027E+01  0.3408E+02  0.3408E+02
     17.437  0.9146E+00  0.9146E+00  0.3436E+02  0.3436E+02
     17.715  0.7455E+00  0.7455E+00  0.3458E+02  0.3458E+02
     17.994  0.7028E+00  0.7028E+00  0.3478E+02  0.3478E+02
     18.272  0.6909E+00  0.6909E+00  0.3497E+02  0.3497E+02
     18.550  0.6533E+00  0.6533E+00  0.3516E+02  0.3516E+02
     18.828  0.5317E+00  0.5317E+00  0.3532E+02  0.3532E+02
     19.106  0.5292E+00  0.5292E+00  0.3547E+02  0.3547E+02
     19.384  0.7043E+00  0.7043E+00  0.3563E+02  0.3563E+02
     19.662  0.4416E+00  0.4416E+00  0.3579E+02  0.3579E+02
     19.940  0.2484E+00  0.2484E+00  0.3588E+02  0.3588E+02
     20.218  0.1506E+00  0.1506E+00  0.3594E+02  0.3594E+02
     20.496  0.9548E-01  0.9548E-01  0.3597E+02  0.3597E+02
     20.775  0.5209E-01  0.5209E-01  0.3599E+02  0.3599E+02
     21.053  0.1303E-01  0.1303E-01  0.3600E+02  0.3600E+02
     21.331  0.0000E+00  0.0000E+00  0.3600E+02  0.3600E+02
     21.609  0.0000E+00  0.0000E+00  0.3600E+02  0.3600E+02
     21.887  0.0000E+00  0.0000E+00  0.3600E+02  0.3600E+02
     22.165  0.0000E+00  0.0000E+00  0.3600E+02  0.3600E+02
     22.443  0.0000E+00  0.0000E+00  0.3600E+02  0.3600E+02
     22.721  0.0000E+00  0.0000E+00  0.3600E+02  0.3600E+02
     22.999  0.0000E+00  0.0000E+00  0.3600E+02  0.3600E+02
     23.277  0.0000E+00  0.0000E+00  0.3600E+02  0.3600E+02
     23.555  0.0000E+00  0.0000E+00  0.3600E+02  0.3600E+02
     23.834  0.0000E+00  0.0000E+00  0.3600E+02  0.3600E+02
     24.112  0.0000E+00  0.0000E+00  0.3600E+02  0.3600E+02
     24.390  0.0000E+00  0.0000E+00  0.3600E+02  0.3600E+02
     24.668  0.0000E+00  0.0000E+00  0.3600E+02  0.3600E+02
     24.946  0.0000E+00  0.0000E+00  0.3600E+02  0.3600E+02
