       N       E                     dE             d eps       ncg     rms          rms(c)
DAV:   1     0.620781554295E+03    0.62078E+03   -0.32008E+04  7864   0.174E+03
DAV:   2     0.526060671816E+01   -0.61552E+03   -0.59283E+03  6784   0.552E+02
DAV:   3    -0.298573789236E+02   -0.35118E+02   -0.33654E+02  7468   0.151E+02
DAV:   4    -0.307699003968E+02   -0.91252E+00   -0.90814E+00  7432   0.234E+01
DAV:   5    -0.307931495746E+02   -0.23249E-01   -0.23247E-01  7748   0.392E+00    0.223E+01
DAV:   6    -0.374807458353E+02   -0.66876E+01   -0.86627E+01  7688   0.121E+02    0.284E+01
DAV:   7    -0.267872152909E+02    0.10694E+02   -0.29329E+01  7736   0.810E+01    0.506E+00
DAV:   8    -0.270592988897E+02   -0.27208E+00   -0.35901E+00  8144   0.285E+01    0.628E+00
DAV:   9    -0.268836876959E+02    0.17561E+00   -0.16968E+00  8264   0.203E+01    0.229E+00
DAV:  10    -0.268376450475E+02    0.46043E-01   -0.20175E-01  8128   0.568E+00    0.561E-01
DAV:  11    -0.268399116013E+02   -0.22666E-02   -0.17317E-02  7392   0.113E+00    0.332E-01
DAV:  12    -0.268384455391E+02    0.14661E-02   -0.48747E-03  8500   0.986E-01    0.118E-01
DAV:  13    -0.268385146633E+02   -0.69124E-04   -0.51136E-04  7356   0.258E-01    0.442E-02
DAV:  14    -0.268385149140E+02   -0.25079E-06   -0.77481E-05  8588   0.829E-02    0.144E-02
DAV:  15    -0.268385153028E+02   -0.38875E-06   -0.91591E-06  7436   0.346E-02    0.559E-03
DAV:  16    -0.268385148628E+02    0.43998E-06   -0.88519E-07  7536   0.121E-02    0.219E-03
DAV:  17    -0.268385145734E+02    0.28936E-06   -0.15124E-07  7996   0.375E-03    0.791E-04
DAV:  18    -0.268385145486E+02    0.24864E-07   -0.26394E-08  5268   0.248E-03    0.220E-04
DAV:  19    -0.268385145246E+02    0.23983E-07   -0.35666E-09  3768   0.597E-04    0.189E-04
DAV:  20    -0.268385145156E+02    0.89531E-08   -0.12379E-09  3688   0.447E-04
   1 F= -.26838515E+02 E0= -.26838850E+02  d E =-.268385E+02  mag=     0.0000
       N       E                     dE             d eps       ncg     rms          rms(c)
DAV:   1    -0.916813800774E+02   -0.64843E+02   -0.72918E+02  6820   0.385E+02    0.654E+01
DAV:   2    -0.643267365840E+02    0.27355E+02   -0.51148E+02  7724   0.234E+02    0.527E+01
DAV:   3    -0.346142069970E+02    0.29713E+02   -0.22417E+02  7896   0.161E+02    0.260E+01
DAV:   4    -0.307309594189E+02    0.38832E+01   -0.29965E+01  7528   0.685E+01    0.174E+01
DAV:   5    -0.274162748572E+02    0.33147E+01   -0.88061E+00  7956   0.403E+01    0.239E+00
DAV:   6    -0.272479129296E+02    0.16836E+00   -0.14628E+00  7080   0.131E+01    0.317E+00
DAV:   7    -0.271569310890E+02    0.90982E-01   -0.28911E-01  7412   0.655E+00    0.367E-01
DAV:   8    -0.271549189627E+02    0.20121E-02   -0.22854E-02  8732   0.201E+00    0.309E-01
DAV:   9    -0.271541318366E+02    0.78713E-03   -0.69023E-03  8028   0.132E+00    0.170E-01
DAV:  10    -0.271540193639E+02    0.11247E-03   -0.10146E-03  7968   0.491E-01    0.548E-02
DAV:  11    -0.271540188315E+02    0.53244E-06   -0.15187E-04  8096   0.166E-01    0.385E-02
DAV:  12    -0.271540093345E+02    0.94970E-05   -0.69962E-05  8048   0.112E-01    0.886E-03
DAV:  13    -0.271540093213E+02    0.13173E-07   -0.71101E-06  7236   0.360E-02    0.373E-03
DAV:  14    -0.271540092618E+02    0.59536E-07   -0.86331E-07  7612   0.136E-02    0.200E-03
DAV:  15    -0.271540092194E+02    0.42422E-07   -0.18617E-07  8124   0.717E-03    0.667E-04
DAV:  16    -0.271540092122E+02    0.71377E-08   -0.21098E-08  4048   0.216E-03
   2 F= -.27154009E+02 E0= -.27154723E+02  d E =-.315495E+00  mag=     0.0000
       N       E                     dE             d eps       ncg     rms          rms(c)
DAV:   1    -0.385882663845E+02   -0.11434E+02   -0.10496E+02  7080   0.125E+02    0.350E+01
DAV:   2    -0.520399996131E+02   -0.13452E+02   -0.20063E+02  7264   0.181E+02    0.375E+01
DAV:   3    -0.275818678291E+02    0.24458E+02   -0.64995E+01  7496   0.105E+02    0.447E+00
DAV:   4    -0.274090570232E+02    0.17281E+00   -0.29733E+00  8112   0.159E+01    0.419E+00
DAV:   5    -0.275063577674E+02   -0.97301E-01   -0.13945E+00  7832   0.193E+01    0.554E+00
DAV:   6    -0.272757899941E+02    0.23057E+00   -0.78958E-01  8440   0.121E+01    0.378E-01
DAV:   7    -0.272779857498E+02   -0.21958E-02   -0.46097E-02  7096   0.166E+00    0.401E-01
DAV:   8    -0.272761432596E+02    0.18425E-02   -0.45387E-03  9212   0.833E-01    0.904E-02
DAV:   9    -0.272761810078E+02   -0.37748E-04   -0.76648E-04  7240   0.219E-01    0.485E-02
DAV:  10    -0.272761570407E+02    0.23967E-04   -0.10689E-04  7248   0.123E-01    0.111E-02
DAV:  11    -0.272761550307E+02    0.20100E-05   -0.10091E-05  7452   0.423E-02    0.583E-03
DAV:  12    -0.272761543431E+02    0.68754E-06   -0.15867E-06  8056   0.159E-02    0.171E-03
DAV:  13    -0.272761543447E+02   -0.16316E-08   -0.11807E-07  7120   0.443E-03    0.588E-04
DAV:  14    -0.272761543512E+02   -0.64938E-08   -0.16556E-08  5144   0.147E-03
   3 F= -.27276154E+02 E0= -.27276140E+02  d E =-.437640E+00  mag=    -0.0000
       N       E                     dE             d eps       ncg     rms          rms(c)
DAV:   1    -0.283940229375E+02   -0.11179E+01   -0.23751E+01  8344   0.793E+01    0.109E+01
DAV:   2    -0.292411383512E+02   -0.84712E+00   -0.15879E+01  7312   0.490E+01    0.122E+01
DAV:   3    -0.274899868197E+02    0.17512E+01   -0.67061E+00  7252   0.314E+01    0.295E+00
DAV:   4    -0.273845334006E+02    0.10545E+00   -0.24582E-01  7800   0.442E+00    0.628E-01
DAV:   5    -0.273908246273E+02   -0.62912E-02   -0.66030E-02  7848   0.402E+00    0.112E+00
DAV:   6    -0.273821234011E+02    0.87012E-02   -0.31688E-02  7900   0.356E+00    0.136E-01
DAV:   7    -0.273822065220E+02   -0.83121E-04   -0.28317E-03  7056   0.470E-01    0.663E-02
DAV:   8    -0.273822123956E+02   -0.58737E-05   -0.29533E-04  8776   0.252E-01    0.475E-02
DAV:   9    -0.273822039524E+02    0.84432E-05   -0.43324E-05  8560   0.107E-01    0.980E-03
DAV:  10    -0.273822026723E+02    0.12801E-05   -0.66556E-06  7656   0.258E-02    0.178E-03
DAV:  11    -0.273822025530E+02    0.11927E-06   -0.30870E-07  7444   0.559E-03    0.815E-04
DAV:  12    -0.273822025126E+02    0.40451E-07   -0.34965E-08  6424   0.236E-03    0.188E-04
DAV:  13    -0.273822024945E+02    0.18024E-07   -0.24239E-09  3624   0.534E-04    0.825E-05
DAV:  14    -0.273822024955E+02   -0.93860E-09   -0.49677E-10  3512   0.228E-04
   4 F= -.27382202E+02 E0= -.27382573E+02  d E =-.106048E+00  mag=     0.0000
       N       E                     dE             d eps       ncg     rms          rms(c)
DAV:   1    -0.284942147419E+02   -0.11120E+01   -0.24526E+01  8264   0.797E+01    0.112E+01
DAV:   2    -0.293580344203E+02   -0.86382E+00   -0.16601E+01  7320   0.510E+01    0.124E+01
DAV:   3    -0.275276360407E+02    0.18304E+01   -0.69434E+00  7336   0.327E+01    0.305E+00
DAV:   4    -0.274925250419E+02    0.35111E-01   -0.51390E-01  9176   0.110E+01    0.342E+00
DAV:   5    -0.274170744076E+02    0.75451E-01   -0.29201E-01  7984   0.894E+00    0.574E-01
DAV:   6    -0.274151490370E+02    0.19254E-02   -0.21402E-02  7208   0.162E+00    0.150E-01
DAV:   7    -0.274150493763E+02    0.99661E-04   -0.14320E-03  7624   0.413E-01    0.427E-02
DAV:   8    -0.274150553511E+02   -0.59748E-05   -0.93248E-05  8152   0.973E-02    0.147E-02
DAV:   9    -0.274150505860E+02    0.47652E-05   -0.93458E-06  7672   0.260E-02    0.342E-03
DAV:  10    -0.274150502348E+02    0.35116E-06   -0.74999E-07  7488   0.874E-03    0.164E-03
DAV:  11    -0.274150501699E+02    0.64952E-07   -0.96305E-08  6656   0.459E-03    0.410E-04
DAV:  12    -0.274150501477E+02    0.22188E-07   -0.97937E-09  3768   0.138E-03    0.167E-04
DAV:  13    -0.274150501465E+02    0.11241E-08   -0.34766E-09  3576   0.746E-04
   5 F= -.27415050E+02 E0= -.27414795E+02  d E =-.138896E+00  mag=     0.0000
       N       E                     dE             d eps       ncg     rms          rms(c)
DAV:   1    -0.274289160437E+02   -0.13866E-01   -0.30253E-01  8040   0.889E+00    0.123E+00
DAV:   2    -0.274418387951E+02   -0.12923E-01   -0.20287E-01  7480   0.608E+00    0.156E+00
DAV:   3    -0.274233401883E+02    0.18499E-01   -0.11511E-01  7648   0.524E+00    0.103E+00
DAV:   4    -0.274169990836E+02    0.63411E-02   -0.36588E-02  7832   0.351E+00    0.356E-01
DAV:   5    -0.274157057180E+02    0.12934E-02   -0.35613E-03  8432   0.686E-01    0.736E-02
DAV:   6    -0.274156722097E+02    0.33508E-04   -0.35773E-04  7200   0.206E-01    0.183E-02
DAV:   7    -0.274156700991E+02    0.21105E-05   -0.15542E-05  8136   0.450E-02    0.623E-03
DAV:   8    -0.274156700272E+02    0.71896E-07   -0.12403E-06  7936   0.101E-02    0.143E-03
DAV:   9    -0.274156699578E+02    0.69444E-07   -0.11232E-07  7672   0.332E-03    0.330E-04
DAV:  10    -0.274156699389E+02    0.18937E-07   -0.55689E-09  3760   0.920E-04    0.926E-05
DAV:  11    -0.274156699353E+02    0.35561E-08   -0.18914E-09  3584   0.409E-04
   6 F= -.27415670E+02 E0= -.27415642E+02  d E =-.139516E+00  mag=     0.0000
       N       E                     dE             d eps       ncg     rms          rms(c)
DAV:   1    -0.287537732319E+02   -0.13381E+01   -0.20766E+01  7192   0.566E+01    0.112E+01
DAV:   2    -0.297555471399E+02   -0.10018E+01   -0.21725E+01  7296   0.531E+01    0.140E+01
DAV:   3    -0.275494182842E+02    0.22061E+01   -0.73229E+00  7440   0.334E+01    0.322E+00
DAV:   4    -0.277319885245E+02   -0.18257E+00   -0.19024E+00  8464   0.206E+01    0.586E+00
DAV:   5    -0.274423835755E+02    0.28960E+00   -0.53818E-01  8176   0.134E+01    0.717E-01
DAV:   6    -0.274421497848E+02    0.23379E-03   -0.68764E-02  8552   0.255E+00    0.395E-01
DAV:   7    -0.274414659726E+02    0.68381E-03   -0.61423E-03  7128   0.115E+00    0.111E-01
DAV:   8    -0.274414212880E+02    0.44685E-04   -0.10979E-03  8568   0.383E-01    0.886E-02
DAV:   9    -0.274413598817E+02    0.61406E-04   -0.26547E-04  8176   0.214E-01    0.109E-02
DAV:  10    -0.274413594512E+02    0.43048E-06   -0.19632E-05  7480   0.447E-02    0.728E-03
DAV:  11    -0.274413597949E+02   -0.34375E-06   -0.20858E-06  7768   0.161E-02    0.132E-03
DAV:  12    -0.274413598519E+02   -0.56918E-07   -0.17338E-07  7936   0.471E-03    0.643E-04
DAV:  13    -0.274413598684E+02   -0.16546E-07   -0.20571E-08  4440   0.198E-03    0.228E-04
DAV:  14    -0.274413598703E+02   -0.18699E-08   -0.30899E-09  3568   0.562E-04
   7 F= -.27441360E+02 E0= -.27441766E+02  d E =-.256899E-01  mag=    -0.0000
       N       E                     dE             d eps       ncg     rms          rms(c)
DAV:   1    -0.274487312448E+02   -0.73714E-02   -0.11505E-01  7200   0.419E+00    0.825E-01
DAV:   2    -0.274533459729E+02   -0.46147E-02   -0.95284E-02  7336   0.388E+00    0.977E-01
DAV:   3    -0.274424584874E+02    0.10887E-01   -0.41164E-02  7528   0.260E+00    0.352E-01
DAV:   4    -0.274426405003E+02   -0.18201E-03   -0.10527E-02  7880   0.155E+00    0.377E-01
DAV:   5    -0.274415514617E+02    0.10890E-02   -0.29417E-03  8624   0.746E-01    0.516E-02
DAV:   6    -0.274415354547E+02    0.16007E-04   -0.21958E-04  7464   0.151E-01    0.135E-02
DAV:   7    -0.274415348083E+02    0.64638E-06   -0.75767E-06  7168   0.299E-02    0.650E-03
DAV:   8    -0.274415348250E+02   -0.16644E-07   -0.12393E-06  7336   0.113E-02    0.964E-04
DAV:   9    -0.274415348664E+02   -0.41378E-07   -0.83311E-08  6952   0.302E-03    0.417E-04
DAV:  10    -0.274415349040E+02   -0.37593E-07   -0.49622E-09  3664   0.902E-04    0.643E-05
DAV:  11    -0.274415349097E+02   -0.56953E-08   -0.14720E-09  3480   0.408E-04
   8 F= -.27441535E+02 E0= -.27441959E+02  d E =-.258650E-01  mag=     0.0000
       N       E                     dE             d eps       ncg     rms          rms(c)
DAV:   1    -0.281448072393E+02   -0.70327E+00   -0.11891E+01  7176   0.314E+01    0.793E+00
DAV:   2    -0.284425569217E+02   -0.29775E+00   -0.72901E+00  7400   0.329E+01    0.889E+00
DAV:   3    -0.275170566446E+02    0.92550E+00   -0.34217E+00  7224   0.225E+01    0.214E+00
DAV:   4    -0.275145416540E+02    0.25150E-02   -0.39537E-01  9104   0.768E+00    0.281E+00
DAV:   5    -0.274628417137E+02    0.51700E-01   -0.19012E-01  8168   0.645E+00    0.427E-01
DAV:   6    -0.274615925782E+02    0.12491E-02   -0.13112E-02  7192   0.105E+00    0.123E-01
DAV:   7    -0.274614862361E+02    0.10634E-03   -0.63297E-04  7760   0.251E-01    0.463E-02
DAV:   8    -0.274614993030E+02   -0.13067E-04   -0.75797E-05  7912   0.869E-02    0.148E-02
DAV:   9    -0.274614982767E+02    0.10262E-05   -0.10092E-05  8464   0.382E-02    0.714E-03
DAV:  10    -0.274614978970E+02    0.37974E-06   -0.24102E-06  7448   0.207E-02    0.221E-03
DAV:  11    -0.274614977973E+02    0.99635E-07   -0.19655E-07  7912   0.467E-03    0.349E-04
DAV:  12    -0.274614977828E+02    0.14525E-07   -0.13873E-08  3896   0.115E-03    0.169E-04
DAV:  13    -0.274614977815E+02    0.13442E-08   -0.36831E-09  3544   0.612E-04
   9 F= -.27461498E+02 E0= -.27461292E+02  d E =-.199629E-01  mag=    -0.0000
       N       E                     dE             d eps       ncg     rms          rms(c)
DAV:   1    -0.283238865731E+02   -0.86239E+00   -0.14867E+01  7184   0.353E+01    0.886E+00
DAV:   2    -0.286717113461E+02   -0.34782E+00   -0.89918E+00  7384   0.367E+01    0.970E+00
DAV:   3    -0.275442163094E+02    0.11275E+01   -0.42217E+00  7280   0.251E+01    0.265E+00
DAV:   4    -0.277774214198E+02   -0.23321E+00   -0.19263E+00  8336   0.169E+01    0.699E+00
DAV:   5    -0.274737330464E+02    0.30369E+00   -0.12269E+00  8080   0.135E+01    0.518E-01
DAV:   6    -0.274720967789E+02    0.16363E-02   -0.45592E-02  7120   0.171E+00    0.149E-01
DAV:   7    -0.274719699437E+02    0.12684E-03   -0.13017E-03  8144   0.358E-01    0.882E-02
DAV:   8    -0.274719497092E+02    0.20235E-04   -0.27727E-04  8208   0.195E-01    0.212E-02
DAV:   9    -0.274719513505E+02   -0.16413E-05   -0.33364E-05  7376   0.604E-02    0.909E-03
DAV:  10    -0.274719506669E+02    0.68360E-06   -0.25262E-06  7872   0.155E-02    0.255E-03
DAV:  11    -0.274719504761E+02    0.19081E-06   -0.47357E-07  7608   0.718E-03    0.106E-03
DAV:  12    -0.274719504279E+02    0.48220E-07   -0.49117E-08  5488   0.196E-03    0.337E-04
DAV:  13    -0.274719504161E+02    0.11734E-07   -0.96866E-09  3968   0.933E-04    0.110E-04
DAV:  14    -0.274719504179E+02   -0.17590E-08   -0.22294E-09  3512   0.422E-04
  10 F= -.27471950E+02 E0= -.27471406E+02  d E =-.304155E-01  mag=    -0.0000
       N       E                     dE             d eps       ncg     rms          rms(c)
DAV:   1    -0.275798490079E+02   -0.10790E+00   -0.18715E+00  7160   0.127E+01    0.310E+00
DAV:   2    -0.276244463095E+02   -0.44597E-01   -0.11482E+00  7432   0.132E+01    0.352E+00
DAV:   3    -0.274889476982E+02    0.13550E+00   -0.53314E-01  7528   0.935E+00    0.142E+00
DAV:   4    -0.274968193984E+02   -0.78717E-02   -0.24494E-01  7872   0.608E+00    0.202E+00
DAV:   5    -0.274736983842E+02    0.23121E-01   -0.14061E-01  8416   0.411E+00    0.274E-01
DAV:   6    -0.274728944956E+02    0.80389E-03   -0.47641E-03  7328   0.592E-01    0.120E-01
DAV:   7    -0.274727482135E+02    0.14628E-03   -0.28198E-04  8472   0.206E-01    0.537E-02
DAV:   8    -0.274727373507E+02    0.10863E-04   -0.88046E-05  8328   0.734E-02    0.106E-02
DAV:   9    -0.274727385045E+02   -0.11537E-05   -0.84076E-06  7608   0.297E-02    0.501E-03
DAV:  10    -0.274727383019E+02    0.20254E-06   -0.88729E-07  8664   0.110E-02    0.200E-03
DAV:  11    -0.274727382532E+02    0.48698E-07   -0.16441E-07  7264   0.472E-03    0.460E-04
DAV:  12    -0.274727382456E+02    0.76670E-08   -0.11516E-08  3560   0.113E-03
  11 F= -.27472738E+02 E0= -.27472191E+02  d E =-.312033E-01  mag=    -0.0000
       N       E                     dE             d eps       ncg     rms          rms(c)
DAV:   1    -0.280939949793E+02   -0.62126E+00   -0.14080E+01  8072   0.403E+01    0.701E+00
DAV:   2    -0.280766532617E+02    0.17342E-01   -0.48041E+00  7384   0.287E+01    0.702E+00
DAV:   3    -0.275730345160E+02    0.50362E+00   -0.21833E+00  7352   0.185E+01    0.292E+00
DAV:   4    -0.277305362718E+02   -0.15750E+00   -0.15758E+00  8152   0.173E+01    0.632E+00
DAV:   5    -0.274798023123E+02    0.25073E+00   -0.12698E+00  8216   0.137E+01    0.590E-01
DAV:   6    -0.274778289999E+02    0.19733E-02   -0.47381E-02  7104   0.180E+00    0.288E-01
DAV:   7    -0.274770948758E+02    0.73412E-03   -0.28139E-03  9264   0.685E-01    0.849E-02
DAV:   8    -0.274771214116E+02   -0.26536E-04   -0.49492E-04  7056   0.175E-01    0.264E-02
DAV:   9    -0.274771245545E+02   -0.31429E-05   -0.25482E-05  8440   0.578E-02    0.699E-03
DAV:  10    -0.274771242386E+02    0.31596E-06   -0.26527E-06  8056   0.191E-02    0.216E-03
DAV:  11    -0.274771243371E+02   -0.98558E-07   -0.51271E-07  7688   0.108E-02    0.179E-03
DAV:  12    -0.274771243095E+02    0.27623E-07   -0.11722E-07  7112   0.554E-03    0.295E-04
DAV:  13    -0.274771243241E+02   -0.14623E-07   -0.74961E-09  3616   0.825E-04    0.135E-04
DAV:  14    -0.274771243248E+02   -0.63483E-09   -0.11451E-09  3584   0.376E-04
  12 F= -.27477124E+02 E0= -.27476820E+02  d E =-.438608E-02  mag=    -0.0000
       N       E                     dE             d eps       ncg     rms          rms(c)
DAV:   1    -0.275477462633E+02   -0.70622E-01   -0.15743E+00  8328   0.133E+01    0.234E+00
DAV:   2    -0.275398384245E+02    0.79078E-02   -0.45451E-01  7296   0.907E+00    0.218E+00
DAV:   3    -0.274877525721E+02    0.52086E-01   -0.19503E-01  7400   0.575E+00    0.806E-01
DAV:   4    -0.274791689531E+02    0.85836E-02   -0.17029E-02  8568   0.139E+00    0.141E-01
DAV:   5    -0.274797115506E+02   -0.54260E-03   -0.52838E-03  8192   0.101E+00    0.299E-01
DAV:   6    -0.274791107375E+02    0.60081E-03   -0.26792E-03  7936   0.743E-01    0.336E-02
DAV:   7    -0.274791153276E+02   -0.45901E-05   -0.14227E-04  7088   0.121E-01    0.165E-02
DAV:   8    -0.274791151894E+02    0.13824E-06   -0.11028E-05  8664   0.453E-02    0.555E-03
DAV:   9    -0.274791149311E+02    0.25826E-06   -0.10191E-06  8712   0.135E-02    0.115E-03
DAV:  10    -0.274791148106E+02    0.12053E-06   -0.96702E-08  7016   0.279E-03    0.348E-04
DAV:  11    -0.274791148008E+02    0.97571E-08   -0.11421E-08  3728   0.134E-03
  13 F= -.27479115E+02 E0= -.27478915E+02  d E =-.637656E-02  mag=    -0.0000
       N       E                     dE             d eps       ncg     rms          rms(c)
DAV:   1    -0.274879442457E+02   -0.88294E-02   -0.50207E-01  8456   0.135E+01    0.109E+00
DAV:   2    -0.274887244899E+02   -0.78024E-03   -0.13939E-01  7096   0.410E+00    0.767E-01
DAV:   3    -0.274874377074E+02    0.12868E-02   -0.58616E-02  8080   0.322E+00    0.905E-01
DAV:   4    -0.274849423518E+02    0.24954E-02   -0.53176E-02  8088   0.343E+00    0.776E-01
DAV:   5    -0.274806343893E+02    0.43080E-02   -0.22983E-02  8168   0.175E+00    0.682E-02
DAV:   6    -0.274806084645E+02    0.25925E-04   -0.10094E-03  6984   0.302E-01    0.327E-02
DAV:   7    -0.274806040284E+02    0.44361E-05   -0.61293E-05  8336   0.827E-02    0.155E-02
DAV:   8    -0.274806048318E+02   -0.80342E-06   -0.14521E-05  7448   0.349E-02    0.746E-03
DAV:   9    -0.274806044344E+02    0.39747E-06   -0.19072E-06  8160   0.174E-02    0.124E-03
DAV:  10    -0.274806043967E+02    0.37679E-07   -0.20079E-07  7248   0.417E-03    0.500E-04
DAV:  11    -0.274806043832E+02    0.13481E-07   -0.12908E-08  3736   0.148E-03    0.190E-04
DAV:  12    -0.274806043773E+02    0.58790E-08   -0.37037E-09  3504   0.777E-04
  14 F= -.27480604E+02 E0= -.27480327E+02  d E =-.148958E-02  mag=    -0.0000
       N       E                     dE             d eps       ncg     rms          rms(c)
DAV:   1    -0.274846602680E+02   -0.40559E-02   -0.26165E-01  8376   0.979E+00    0.791E-01
DAV:   2    -0.274853164177E+02   -0.65615E-03   -0.75430E-02  7112   0.303E+00    0.574E-01
DAV:   3    -0.274845426284E+02    0.77379E-03   -0.32617E-02  8056   0.244E+00    0.667E-01
DAV:   4    -0.274829559610E+02    0.15867E-02   -0.27362E-02  8128   0.247E+00    0.506E-01
DAV:   5    -0.274808577561E+02    0.20982E-02   -0.84886E-03  8096   0.120E+00    0.372E-02
DAV:   6    -0.274808664451E+02   -0.86890E-05   -0.47377E-04  6976   0.203E-01    0.208E-02
DAV:   7    -0.274808656339E+02    0.81117E-06   -0.21869E-05  8568   0.486E-02    0.956E-03
DAV:   8    -0.274808660141E+02   -0.38019E-06   -0.41092E-06  7608   0.191E-02    0.422E-03
DAV:   9    -0.274808658466E+02    0.16751E-06   -0.54960E-07  7928   0.934E-03    0.717E-04
DAV:  10    -0.274808658229E+02    0.23687E-07   -0.74731E-08  6184   0.274E-03    0.330E-04
DAV:  11    -0.274808658156E+02    0.73032E-08   -0.39676E-09  3520   0.811E-04
  15 F= -.27480866E+02 E0= -.27480512E+02  d E =-.175101E-02  mag=    -0.0000
       N       E                     dE             d eps       ncg     rms          rms(c)
DAV:   1    -0.274801733190E+02    0.69250E-03   -0.83373E-02  7648   0.977E+00    0.501E-01
DAV:   2    -0.274864141137E+02   -0.62408E-02   -0.69533E-02  7496   0.297E+00    0.706E-01
DAV:   3    -0.274826813279E+02    0.37328E-02   -0.32892E-02  7912   0.248E+00    0.510E-01
DAV:   4    -0.274812151842E+02    0.14661E-02   -0.99773E-03  8224   0.129E+00    0.100E-01
DAV:   5    -0.274811477739E+02    0.67410E-04   -0.39813E-04  7168   0.183E-01    0.562E-02
DAV:   6    -0.274811206052E+02    0.27169E-04   -0.78673E-05  8136   0.112E-01    0.117E-02
DAV:   7    -0.274811194979E+02    0.11073E-05   -0.93240E-06  7568   0.354E-02    0.283E-03
DAV:   8    -0.274811196043E+02   -0.10635E-06   -0.48737E-07  7792   0.748E-03    0.163E-03
DAV:   9    -0.274811196088E+02   -0.45220E-08   -0.99442E-08  7276   0.383E-03
  16 F= -.27481120E+02 E0= -.27480765E+02  d E =-.253793E-03  mag=    -0.0002
       N       E                     dE             d eps       ncg     rms          rms(c)
DAV:   1    -0.274810877555E+02    0.31849E-04   -0.37104E-03  7624   0.206E+00    0.106E-01
DAV:   2    -0.274813648103E+02   -0.27705E-03   -0.31107E-03  7504   0.629E-01    0.150E-01
DAV:   3    -0.274812007309E+02    0.16408E-03   -0.15083E-03  7920   0.531E-01    0.105E-01
DAV:   4    -0.274811334134E+02    0.67317E-04   -0.40042E-04  8216   0.275E-01    0.205E-02
DAV:   5    -0.274811309836E+02    0.24298E-05   -0.17891E-05  7104   0.379E-02    0.116E-02
DAV:   6    -0.274811301603E+02    0.82324E-06   -0.33828E-06  8124   0.226E-02    0.274E-03
DAV:   7    -0.274811302115E+02   -0.51166E-07   -0.44097E-07  7612   0.755E-03    0.180E-03
DAV:   8    -0.274811302454E+02   -0.33901E-07   -0.31724E-08  4656   0.144E-03    0.217E-03
DAV:   9    -0.274811301654E+02    0.79963E-07   -0.14181E-07  6764   0.372E-03    0.201E-03
DAV:  10    -0.274811301453E+02    0.20074E-07   -0.10291E-07  5748   0.264E-03    0.131E-03
DAV:  11    -0.274811301196E+02    0.25710E-07   -0.29891E-07  8192   0.463E-03    0.618E-04
DAV:  12    -0.274811301967E+02   -0.77031E-07   -0.48181E-08  4704   0.179E-03    0.857E-04
DAV:  13    -0.274811301867E+02    0.99990E-08   -0.23358E-08  3628   0.189E-03
  17 F= -.27481130E+02 E0= -.27480776E+02  d E =-.264371E-03  mag=     0.0004
       N       E                     dE             d eps       ncg     rms          rms(c)
DAV:   1    -0.274884314936E+02   -0.73013E-02   -0.82963E-02  7036   0.558E+00    0.899E-01
DAV:   2    -0.274973039430E+02   -0.88724E-02   -0.12647E-01  7392   0.450E+00    0.115E+00
DAV:   3    -0.274817491536E+02    0.15555E-01   -0.53017E-02  7504   0.290E+00    0.294E-01
DAV:   4    -0.274814221926E+02    0.32696E-03   -0.51044E-03  8264   0.997E-01    0.177E-01
DAV:   5    -0.274811464426E+02    0.27575E-03   -0.93509E-04  7900   0.356E-01    0.311E-02
DAV:   6    -0.274811355909E+02    0.10852E-04   -0.65437E-05  7556   0.798E-02    0.152E-02
DAV:   7    -0.274811331563E+02    0.24346E-05   -0.50290E-06  9156   0.224E-02    0.520E-03
DAV:   8    -0.274811330541E+02    0.10223E-06   -0.10525E-06  7740   0.895E-03    0.449E-03
DAV:   9    -0.274811331816E+02   -0.12746E-06   -0.16916E-07  7256   0.302E-03    0.553E-03
DAV:  10    -0.274811324584E+02    0.72315E-06   -0.86632E-07  8700   0.837E-03    0.483E-03
DAV:  11    -0.274811324603E+02   -0.18481E-08   -0.35522E-07  8452   0.446E-03    0.322E-03
DAV:  12    -0.274811322918E+02    0.16850E-06   -0.68678E-07  8720   0.701E-03    0.181E-03
DAV:  13    -0.274811324040E+02   -0.11220E-06   -0.45958E-07  8400   0.496E-03    0.895E-04
DAV:  14    -0.274811324955E+02   -0.91526E-07   -0.56852E-08  5872   0.235E-03    0.138E-03
DAV:  15    -0.274811324644E+02    0.31127E-07   -0.29250E-08  3828   0.199E-03    0.141E-03
DAV:  16    -0.274811324684E+02   -0.40691E-08   -0.43427E-09  3336   0.663E-04
  18 F= -.27481132E+02 E0= -.27480794E+02  d E =-.228177E-05  mag=    -0.0007
       N       E                     dE             d eps       ncg     rms          rms(c)
DAV:   1    -0.274829367156E+02   -0.18043E-02   -0.20074E-02  7048   0.274E+00    0.442E-01
DAV:   2    -0.274850768899E+02   -0.21402E-02   -0.30774E-02  7384   0.221E+00    0.566E-01
DAV:   3    -0.274813340920E+02    0.37428E-02   -0.13174E-02  7552   0.144E+00    0.160E-01
DAV:   4    -0.274812357413E+02    0.98351E-04   -0.14822E-03  8208   0.519E-01    0.847E-02
DAV:   5    -0.274811713118E+02    0.64430E-04   -0.20769E-04  7824   0.167E-01    0.169E-02
DAV:   6    -0.274811689458E+02    0.23660E-05   -0.15956E-05  7756   0.425E-02    0.845E-03
DAV:   7    -0.274811689327E+02    0.13122E-07   -0.16699E-06  8760   0.126E-02    0.558E-03
DAV:   8    -0.274811692684E+02   -0.33572E-06   -0.42322E-07  8312   0.497E-03    0.678E-03
DAV:   9    -0.274811682620E+02    0.10064E-05   -0.13793E-06  8376   0.112E-02    0.606E-03
DAV:  10    -0.274811680168E+02    0.24516E-06   -0.13794E-06  9132   0.944E-03    0.366E-03
DAV:  11    -0.274811679406E+02    0.76207E-07   -0.35858E-06  8976   0.157E-02    0.208E-03
DAV:  12    -0.274811687711E+02   -0.83052E-06   -0.39616E-07  6572   0.674E-03    0.307E-03
DAV:  13    -0.274811685558E+02    0.21528E-06   -0.33931E-07  8400   0.600E-03    0.283E-03
DAV:  14    -0.274811683714E+02    0.18441E-06   -0.83362E-07  9072   0.781E-03    0.147E-03
DAV:  15    -0.274811685443E+02   -0.17284E-06   -0.13670E-06  9060   0.953E-03    0.189E-03
DAV:  16    -0.274811686803E+02   -0.13604E-06   -0.26651E-07  7360   0.668E-03    0.258E-03
DAV:  17    -0.274811686883E+02   -0.79799E-08   -0.92427E-09  3312   0.102E-03
  19 F= -.27481169E+02 E0= -.27480822E+02  d E =-.385016E-04  mag=    -0.0013
       N       E                     dE             d eps       ncg     rms          rms(c)
DAV:   1    -0.274813464898E+02   -0.17781E-03   -0.55613E-03  7920   0.155E+00    0.159E-01
DAV:   2    -0.274815982362E+02   -0.25175E-03   -0.40008E-03  7736   0.777E-01    0.195E-01
DAV:   3    -0.274813216572E+02    0.27658E-03   -0.25492E-03  7928   0.683E-01    0.147E-01
DAV:   4    -0.274812054031E+02    0.11625E-03   -0.91960E-04  8160   0.411E-01    0.480E-02
DAV:   5    -0.274811802030E+02    0.25200E-04   -0.73542E-05  8060   0.998E-02    0.107E-02
DAV:   6    -0.274811803793E+02   -0.17630E-06   -0.75196E-06  7428   0.283E-02    0.753E-03
DAV:   7    -0.274811808158E+02   -0.43647E-06   -0.56485E-07  8264   0.586E-03    0.900E-03
DAV:   8    -0.274811790092E+02    0.18066E-05   -0.27059E-06  8624   0.153E-02    0.771E-03
DAV:   9    -0.274811791041E+02   -0.94889E-07   -0.10973E-06  9144   0.782E-03    0.498E-03
DAV:  10    -0.274811787479E+02    0.35624E-06   -0.34335E-06  8636   0.161E-02    0.247E-03
DAV:  11    -0.274811796551E+02   -0.90722E-06   -0.12135E-06  9044   0.754E-03    0.269E-03
DAV:  12    -0.274811797417E+02   -0.86638E-07   -0.23368E-07  7224   0.610E-03    0.339E-03
DAV:  13    -0.274811796138E+02    0.12792E-06   -0.12526E-07  6988   0.291E-03    0.283E-03
DAV:  14    -0.274811793030E+02    0.31078E-06   -0.12610E-06  8944   0.102E-02    0.159E-03
DAV:  15    -0.274811795885E+02   -0.28543E-06   -0.36021E-07  8184   0.420E-03    0.115E-03
DAV:  16    -0.274811796221E+02   -0.33664E-07   -0.70198E-08  6132   0.335E-03    0.144E-03
DAV:  17    -0.274811795802E+02    0.41893E-07   -0.77057E-08  4944   0.243E-03    0.103E-03
DAV:  18    -0.274811795601E+02    0.20156E-07   -0.21252E-07  7900   0.384E-03    0.492E-04
DAV:  19    -0.274811796142E+02   -0.54144E-07   -0.67706E-08  4468   0.190E-03    0.775E-04
DAV:  20    -0.274811795990E+02    0.15194E-07   -0.50807E-08  5256   0.274E-03    0.837E-04
DAV:  21    -0.274811795928E+02    0.62646E-08   -0.26982E-08  3488   0.131E-03
  20 F= -.27481180E+02 E0= -.27480843E+02  d E =-.109044E-04  mag=     0.0000
       N       E                     dE             d eps       ncg     rms          rms(c)
DAV:   1    -0.274813004208E+02   -0.12082E-03   -0.40397E-03  7920   0.132E+00    0.135E-01
DAV:   2    -0.274814824170E+02   -0.18200E-03   -0.29047E-03  7744   0.661E-01    0.166E-01
DAV:   3    -0.274812831733E+02    0.19924E-03   -0.18602E-03  7928   0.581E-01    0.126E-01
DAV:   4    -0.274811978649E+02    0.85308E-04   -0.67083E-04  8152   0.351E-01    0.408E-02
DAV:   5    -0.274811793785E+02    0.18486E-04   -0.53233E-05  8056   0.848E-02    0.790E-03
DAV:   6    -0.274811791828E+02    0.19566E-06   -0.49585E-06  7280   0.235E-02    0.217E-03
DAV:   7    -0.274811793131E+02   -0.13033E-06   -0.22071E-07  7672   0.514E-03    0.922E-04
DAV:   8    -0.274811793747E+02   -0.61522E-07   -0.27346E-08  4340   0.151E-03    0.798E-04
DAV:   9    -0.274811793724E+02    0.22410E-08   -0.39802E-09  3460   0.690E-04
  21 F= -.27481179E+02 E0= -.27480851E+02  d E =-.106841E-04  mag=     0.0005
