 running on   24 total cores
 distrk:  each k-point on   24 cores,    1 groups
 distr:  one band on    6 cores,    4 groups
 using from now: INCAR     
 vasp.5.4.4.18Apr17-6-g9f103f2a35 (build Jan 03 2018 06:08:52) complex          
  
 POSCAR found :  2 types and       8 ions
 scaLAPACK will be used
 WARNING: for PREC=h ENMAX is automatically increase by 25 %
        this was not the case for versions prior to vasp.4.4
 WARNING: for PREC=h ENMAX is automatically increase by 25 %
        this was not the case for versions prior to vasp.4.4
 LDA part: xc-table for Pade appr. of Perdew
 POSCAR, INCAR and KPOINTS ok, starting setup
 FFT: planning ...
 WAVECAR not read
 entering main loop
       N       E                     dE             d eps       ncg     rms          rms(c)
DAV:   1     0.159783669722E+04    0.15978E+04   -0.68380E+04  9288   0.202E+03
DAV:   2     0.730014710797E+02   -0.15248E+04   -0.14676E+04  8208   0.643E+02
DAV:   3    -0.485583868653E+02   -0.12156E+03   -0.10823E+03  8884   0.200E+02
DAV:   4    -0.533487476994E+02   -0.47904E+01   -0.47242E+01  9020   0.392E+01
DAV:   5    -0.534536912467E+02   -0.10494E+00   -0.10492E+00  9348   0.508E+00    0.256E+01
DAV:   6    -0.531714649144E+02    0.28223E+00   -0.83304E+01  9012   0.883E+01    0.276E+01
DAV:   7    -0.486440584530E+02    0.45274E+01   -0.27380E+01  9360   0.720E+01    0.285E+01
DAV:   8    -0.464136379314E+02    0.22304E+01   -0.12363E+01  9004   0.338E+01    0.123E+01
DAV:   9    -0.459348780556E+02    0.47876E+00   -0.18203E+00 10392   0.171E+01    0.652E+00
DAV:  10    -0.459748401265E+02   -0.39962E-01   -0.79039E-01  9288   0.139E+01    0.777E+00
DAV:  11    -0.457928983998E+02    0.18194E+00   -0.44779E-01  9000   0.108E+01    0.257E+00
DAV:  12    -0.457619254288E+02    0.30973E-01   -0.76375E-02 11044   0.394E+00    0.572E-01
DAV:  13    -0.457655429359E+02   -0.36175E-02   -0.22153E-02  8900   0.115E+00    0.787E-01
DAV:  14    -0.457648329603E+02    0.70998E-03   -0.37661E-03  8964   0.876E-01    0.382E-01
DAV:  15    -0.457645181862E+02    0.31477E-03   -0.87223E-04 11172   0.349E-01    0.113E-01
DAV:  16    -0.457645545847E+02   -0.36398E-04   -0.29473E-04  9784   0.170E-01    0.602E-02
DAV:  17    -0.457645591839E+02   -0.45993E-05   -0.48833E-05  9864   0.843E-02    0.254E-02
DAV:  18    -0.457645623526E+02   -0.31687E-05   -0.13715E-05  9500   0.321E-02    0.924E-03
DAV:  19    -0.457645620559E+02    0.29675E-06   -0.14950E-06  8916   0.145E-02    0.534E-03
DAV:  20    -0.457645616443E+02    0.41154E-06   -0.23631E-07 10828   0.490E-03    0.262E-03
DAV:  21    -0.457645614609E+02    0.18347E-06   -0.72705E-08  8900   0.329E-03    0.806E-04
DAV:  22    -0.457645614249E+02    0.35976E-07   -0.30836E-08  6568   0.150E-03    0.544E-04
DAV:  23    -0.457645614235E+02    0.13752E-08   -0.25486E-09  4440   0.761E-04
   1 F= -.45764561E+02 E0= -.45762774E+02  d E =-.457646E+02  mag=     2.6056
 curvature:   0.00 expect dE= 0.000E+00 dE for cont linesearch  0.000E+00
 trial: gam= 0.00000 g(F)=  0.746E-02 g(S)=  0.641E-01 ort = 0.000E+00 (trialstep = 0.100E+01)
 search vector abs. value=  0.716E-01
 bond charge predicted
       N       E                     dE             d eps       ncg     rms          rms(c)
DAV:   1    -0.516935398882E+02   -0.59290E+01   -0.56910E+01  8452   0.932E+01    0.241E+01
DAV:   2    -0.515836209902E+02    0.10992E+00   -0.70603E+01  8988   0.729E+01    0.227E+01
DAV:   3    -0.495543932271E+02    0.20292E+01   -0.31921E+01  8924   0.592E+01    0.197E+01
DAV:   4    -0.459623510167E+02    0.35920E+01   -0.73428E+00  8864   0.354E+01    0.732E+00
DAV:   5    -0.459501453535E+02    0.12206E-01   -0.11177E+00  8984   0.973E+00    0.574E+00
DAV:   6    -0.458592232712E+02    0.90922E-01   -0.27648E-01 10052   0.923E+00    0.417E+00
DAV:   7    -0.458138487951E+02    0.45374E-01   -0.17931E-01  9720   0.732E+00    0.354E+00
DAV:   8    -0.457752934760E+02    0.38555E-01   -0.11458E-01  9148   0.461E+00    0.866E-01
DAV:   9    -0.457741659720E+02    0.11275E-02   -0.10989E-02  9036   0.964E-01    0.334E-01
DAV:  10    -0.457747227139E+02   -0.55674E-03   -0.16447E-03 11068   0.555E-01    0.364E-01
DAV:  11    -0.457744428121E+02    0.27990E-03   -0.76314E-04  8852   0.472E-01    0.731E-02
DAV:  12    -0.457744557202E+02   -0.12908E-04   -0.11474E-04 10048   0.110E-01    0.477E-02
DAV:  13    -0.457744600910E+02   -0.43708E-05   -0.26594E-05  8916   0.721E-02    0.178E-02
DAV:  14    -0.457744610164E+02   -0.92540E-06   -0.37215E-06 10492   0.192E-02    0.655E-03
DAV:  15    -0.457744614841E+02   -0.46767E-06   -0.67268E-07  9036   0.693E-03    0.270E-03
DAV:  16    -0.457744615770E+02   -0.92943E-07   -0.10770E-07  9552   0.514E-03    0.319E-03
DAV:  17    -0.457744615897E+02   -0.12620E-07   -0.44169E-08  7572   0.264E-03    0.200E-03
DAV:  18    -0.457744615792E+02    0.10426E-07   -0.13480E-08  4740   0.206E-03    0.249E-04
DAV:  19    -0.457744615771E+02    0.21246E-08   -0.57780E-09  4296   0.515E-04
   2 F= -.45774462E+02 E0= -.45772513E+02  d E =-.990015E-02  mag=     2.6524
 trial-energy change:   -0.009900  1 .order   -0.010820   -0.071604    0.049963
 step:   0.5779(harm=  0.5890)  dis= 0.00388  next Energy=   -45.785075 (dE=-0.205E-01)
 bond charge predicted
       N       E                     dE             d eps       ncg     rms          rms(c)
DAV:   1    -0.467999993626E+02   -0.10255E+01   -0.99093E+00  8528   0.391E+01    0.982E+00
DAV:   2    -0.466787790507E+02    0.12122E+00   -0.98863E+00  8956   0.306E+01    0.847E+00
DAV:   3    -0.463298111026E+02    0.34897E+00   -0.29162E+00  8960   0.231E+01    0.149E+01
DAV:   4    -0.457982044049E+02    0.53161E+00   -0.16354E+00  8872   0.129E+01    0.169E+00
DAV:   5    -0.458320696625E+02   -0.33865E-01   -0.14760E-01  9824   0.490E+00    0.384E+00
DAV:   6    -0.457867646190E+02    0.45305E-01   -0.86331E-02  9112   0.439E+00    0.645E-01
DAV:   7    -0.457912946979E+02   -0.45301E-02   -0.17618E-02 10020   0.250E+00    0.129E+00
DAV:   8    -0.457850465767E+02    0.62481E-02   -0.97564E-03  9008   0.211E+00    0.361E-01
DAV:   9    -0.457849828959E+02    0.63681E-04   -0.16967E-03  9852   0.409E-01    0.960E-02
DAV:  10    -0.457850045665E+02   -0.21671E-04   -0.17167E-04  9140   0.119E-01    0.409E-02
DAV:  11    -0.457849977396E+02    0.68269E-05   -0.26793E-05 10948   0.530E-02    0.165E-02
DAV:  12    -0.457849960334E+02    0.17062E-05   -0.79047E-06  8976   0.290E-02    0.684E-03
DAV:  13    -0.457849952981E+02    0.73529E-06   -0.95869E-07  8584   0.914E-03    0.650E-03
DAV:  14    -0.457849950485E+02    0.24961E-06   -0.17503E-07  9364   0.572E-03    0.307E-03
DAV:  15    -0.457849949304E+02    0.11811E-06   -0.46037E-08  7236   0.233E-03    0.739E-04
DAV:  16    -0.457849949091E+02    0.21239E-07   -0.16672E-08  5052   0.103E-03    0.291E-04
DAV:  17    -0.457849949105E+02   -0.13933E-08   -0.25574E-09  4296   0.484E-04
   3 F= -.45784995E+02 E0= -.45783103E+02  d E =-.204335E-01  mag=     2.6319
 curvature:  -0.29 expect dE=-0.885E-03 dE for cont linesearch -0.235E-06
 trial: gam= 0.04534 g(F)=  0.256E-02 g(S)=  0.450E-03 ort =-0.239E-03 (trialstep = 0.916E+00)
 search vector abs. value=  0.313E-02
 bond charge predicted
       N       E                     dE             d eps       ncg     rms          rms(c)
DAV:   1    -0.457399562753E+02    0.45039E-01   -0.12547E+00 13088   0.318E+01    0.690E-01
DAV:   2    -0.457889478991E+02   -0.48992E-01   -0.53409E-01  8572   0.441E+00    0.529E-01
DAV:   3    -0.457897418069E+02   -0.79391E-03   -0.25772E-02  9304   0.223E+00    0.863E-01
DAV:   4    -0.457873231095E+02    0.24187E-02   -0.69862E-03  9116   0.147E+00    0.278E-01
DAV:   5    -0.457873159630E+02    0.71465E-05   -0.15440E-03  9980   0.603E-01    0.297E-01
DAV:   6    -0.457871225194E+02    0.19344E-03   -0.96946E-04  9232   0.495E-01    0.261E-01
DAV:   7    -0.457870056050E+02    0.11691E-03   -0.57615E-04  9116   0.485E-01    0.168E-01
DAV:   8    -0.457868840438E+02    0.12156E-03   -0.16685E-04 10572   0.245E-01    0.278E-02
DAV:   9    -0.457868799636E+02    0.40803E-05   -0.42932E-05  9940   0.585E-02    0.111E-02
DAV:  10    -0.457868800758E+02   -0.11224E-06   -0.51662E-06  8664   0.222E-02    0.582E-03
DAV:  11    -0.457868798150E+02    0.26085E-06   -0.39756E-07 10948   0.714E-03    0.224E-03
DAV:  12    -0.457868796528E+02    0.16220E-06   -0.97195E-08  8204   0.306E-03    0.144E-03
DAV:  13    -0.457868796086E+02    0.44158E-07   -0.22622E-08  5396   0.181E-03    0.564E-04
DAV:  14    -0.457868795762E+02    0.32436E-07   -0.44768E-09  4324   0.656E-04    0.218E-04
DAV:  15    -0.457868795669E+02    0.92878E-08   -0.15678E-09  4276   0.414E-04
   4 F= -.45786880E+02 E0= -.45785023E+02  d E =-.188466E-02  mag=     2.6321
 trial-energy change:   -0.001885  1 .order   -0.001883   -0.002743   -0.001023
 step:   1.4598(harm=  1.4598)  dis= 0.00618  next Energy=   -45.787182 (dE=-0.219E-02)
 bond charge predicted
       N       E                     dE             d eps       ncg     rms          rms(c)
DAV:   1    -0.457703603624E+02    0.16519E-01   -0.44112E-01 13040   0.190E+01    0.408E-01
DAV:   2    -0.457878740258E+02   -0.17514E-01   -0.18996E-01  8560   0.263E+00    0.304E-01
DAV:   3    -0.457881272896E+02   -0.25326E-03   -0.87392E-03  9324   0.128E+00    0.498E-01
DAV:   4    -0.457873365963E+02    0.79069E-03   -0.21784E-03  9096   0.842E-01    0.154E-01
DAV:   5    -0.457873376976E+02   -0.11013E-05   -0.48776E-04  9964   0.349E-01    0.176E-01
DAV:   6    -0.457872634108E+02    0.74287E-04   -0.34071E-04  9240   0.293E-01    0.150E-01
DAV:   7    -0.457872365324E+02    0.26878E-04   -0.22293E-04  9124   0.289E-01    0.112E-01
DAV:   8    -0.457871840847E+02    0.52448E-04   -0.67832E-05 10108   0.161E-01    0.166E-02
DAV:   9    -0.457871822256E+02    0.18591E-05   -0.16649E-05 10012   0.352E-02    0.685E-03
DAV:  10    -0.457871821785E+02    0.47112E-07   -0.19004E-06  8636   0.135E-02    0.371E-03
DAV:  11    -0.457871820276E+02    0.15086E-06   -0.15667E-07 10684   0.448E-03    0.135E-03
DAV:  12    -0.457871819236E+02    0.10395E-06   -0.35589E-08  6972   0.189E-03    0.880E-04
DAV:  13    -0.457871818941E+02    0.29548E-07   -0.91873E-09  4308   0.118E-03    0.346E-04
DAV:  14    -0.457871818744E+02    0.19740E-07   -0.21097E-09  4292   0.423E-04    0.145E-04
DAV:  15    -0.457871818697E+02    0.46239E-08   -0.69217E-10  4272   0.260E-04
   5 F= -.45787182E+02 E0= -.45785352E+02  d E =-.218696E-02  mag=     2.6322
 curvature:  -0.76 expect dE=-0.491E-04 dE for cont linesearch -0.104E-07
 trial: gam= 0.02891 g(F)=  0.176E-05 g(S)=  0.626E-04 ort =-0.652E-05 (trialstep = 0.102E+01)
 search vector abs. value=  0.666E-04
 bond charge predicted
       N       E                     dE             d eps       ncg     rms          rms(c)
DAV:   1    -0.457881200952E+02   -0.93822E-03   -0.20178E-02  8952   0.857E-01    0.273E-01
DAV:   2    -0.457880234626E+02    0.96633E-04   -0.35600E-03  8980   0.750E-01    0.454E-01
DAV:   3    -0.457882504638E+02   -0.22700E-03   -0.54171E-03  9008   0.104E+00    0.586E-01
DAV:   4    -0.457874769510E+02    0.77351E-03   -0.24648E-03  9196   0.742E-01    0.248E-01
DAV:   5    -0.457873856759E+02    0.91275E-04   -0.79089E-04  9128   0.594E-01    0.191E-01
DAV:   6    -0.457874562474E+02   -0.70571E-04   -0.42246E-04  9596   0.456E-01    0.242E-01
DAV:   7    -0.457872411799E+02    0.21507E-03   -0.22722E-04  9056   0.365E-01    0.299E-02
DAV:   8    -0.457872408664E+02    0.31348E-06   -0.37208E-05  9252   0.450E-02    0.128E-02
DAV:   9    -0.457872408812E+02   -0.14763E-07   -0.22261E-06 10012   0.144E-02    0.669E-03
DAV:  10    -0.457872409605E+02   -0.79304E-07   -0.38411E-07  9780   0.706E-03    0.183E-03
DAV:  11    -0.457872410519E+02   -0.91404E-07   -0.12022E-07  8224   0.290E-03    0.146E-03
DAV:  12    -0.457872410802E+02   -0.28336E-07   -0.14260E-08  4748   0.133E-03    0.971E-04
DAV:  13    -0.457872410966E+02   -0.16367E-07   -0.66225E-09  4376   0.995E-04    0.229E-04
DAV:  14    -0.457872411013E+02   -0.46712E-08   -0.21473E-09  4240   0.375E-04
   6 F= -.45787241E+02 E0= -.45785414E+02  d E =-.592315E-04  mag=     2.6322
 trial-energy change:   -0.000059  1 .order   -0.000059   -0.000066   -0.000052
 step:   3.4069(harm=  4.8549)  dis= 0.00007  next Energy=   -45.787307 (dE=-0.125E-03)
 bond charge predicted
       N       E                     dE             d eps       ncg     rms          rms(c)
DAV:   1    -0.457920673353E+02   -0.48262E-02   -0.10910E-01  8944   0.199E+00    0.635E-01
DAV:   2    -0.457915292601E+02    0.53808E-03   -0.19187E-02  8988   0.175E+00    0.106E+00
DAV:   3    -0.457927070369E+02   -0.11778E-02   -0.30822E-02  9008   0.233E+00    0.132E+00
DAV:   4    -0.457886315274E+02    0.40755E-02   -0.12946E-02  9192   0.174E+00    0.575E-01
DAV:   5    -0.457880646919E+02    0.56684E-03   -0.42331E-03  9128   0.137E+00    0.431E-01
DAV:   6    -0.457885119681E+02   -0.44728E-03   -0.23478E-03  9652   0.105E+00    0.576E-01
DAV:   7    -0.457873238774E+02    0.11881E-02   -0.12462E-03  9068   0.849E-01    0.660E-02
DAV:   8    -0.457873235749E+02    0.30253E-06   -0.20147E-04  9248   0.105E-01    0.270E-02
DAV:   9    -0.457873232837E+02    0.29119E-06   -0.11530E-05  9872   0.332E-02    0.147E-02
DAV:  10    -0.457873234682E+02   -0.18443E-06   -0.19083E-06  9796   0.164E-02    0.388E-03
DAV:  11    -0.457873237780E+02   -0.30987E-06   -0.60269E-07  9012   0.639E-03    0.369E-03
DAV:  12    -0.457873238462E+02   -0.68168E-07   -0.75201E-08  7868   0.323E-03    0.208E-03
DAV:  13    -0.457873238847E+02   -0.38475E-07   -0.26472E-08  5544   0.210E-03    0.374E-04
DAV:  14    -0.457873238920E+02   -0.73705E-08   -0.91391E-09  4568   0.735E-04
   7 F= -.45787324E+02 E0= -.45785515E+02  d E =-.142022E-03  mag=     2.6320
 curvature:  -2.16 expect dE=-0.153E-03 dE for cont linesearch -0.952E-05
 trial: gam= 0.00000 g(F)=  0.281E-05 g(S)=  0.680E-04 ort = 0.171E-04 (trialstep = 0.141E+01)
 search vector abs. value=  0.708E-04
 bond charge predicted
       N       E                     dE             d eps       ncg     rms          rms(c)
DAV:   1    -0.457963185089E+02   -0.89946E-02   -0.91168E-02  8752   0.319E+00    0.928E-01
DAV:   2    -0.457960842363E+02    0.23427E-03   -0.89881E-02  8988   0.288E+00    0.887E-01
DAV:   3    -0.457944200906E+02    0.16641E-02   -0.32274E-02  9080   0.295E+00    0.156E+00
DAV:   4    -0.457873609991E+02    0.70591E-02   -0.12745E-02  8944   0.212E+00    0.123E-01
DAV:   5    -0.457877976826E+02   -0.43668E-03   -0.21318E-03  9180   0.512E-01    0.428E-01
DAV:   6    -0.457873722289E+02    0.42545E-03   -0.10556E-03  8944   0.475E-01    0.860E-02
DAV:   7    -0.457873749294E+02   -0.27005E-05   -0.12877E-04 10408   0.216E-01    0.906E-02
DAV:   8    -0.457873317790E+02    0.43150E-04   -0.73549E-05  9032   0.174E-01    0.189E-02
DAV:   9    -0.457873315259E+02    0.25317E-06   -0.23650E-05  8912   0.394E-02    0.959E-03
DAV:  10    -0.457873305477E+02    0.97817E-06   -0.19217E-06  8420   0.140E-02    0.392E-03
DAV:  11    -0.457873302000E+02    0.34768E-06   -0.32866E-07  9192   0.474E-03    0.141E-03
DAV:  12    -0.457873300934E+02    0.10664E-06   -0.41391E-08  7528   0.216E-03    0.725E-04
DAV:  13    -0.457873300560E+02    0.37333E-07   -0.62269E-09  4300   0.854E-04    0.335E-04
DAV:  14    -0.457873300341E+02    0.21919E-07   -0.22324E-09  4224   0.417E-04    0.125E-04
DAV:  15    -0.457873300310E+02    0.30923E-08   -0.75955E-10  4216   0.277E-04
   8 F= -.45787330E+02 E0= -.45785548E+02  d E =-.613899E-05  mag=     2.6307
 trial-energy change:   -0.000006  1 .order   -0.000008   -0.000100    0.000084
 step:   0.7459(harm=  0.7688)  dis= 0.00010  next Energy=   -45.787350 (dE=-0.261E-04)
 bond charge predicted
       N       E                     dE             d eps       ncg     rms          rms(c)
DAV:   1    -0.457893634000E+02   -0.20334E-02   -0.20285E-02  8744   0.151E+00    0.441E-01
DAV:   2    -0.457893269491E+02    0.36451E-04   -0.20255E-02  8988   0.136E+00    0.422E-01
DAV:   3    -0.457889136239E+02    0.41333E-03   -0.70843E-03  9080   0.139E+00    0.724E-01
DAV:   4    -0.457873583638E+02    0.15553E-02   -0.32993E-03  8936   0.105E+00    0.773E-02
DAV:   5    -0.457875032069E+02   -0.14484E-03   -0.59033E-04  9504   0.322E-01    0.241E-01
DAV:   6    -0.457873767630E+02    0.12644E-03   -0.37610E-04  8984   0.287E-01    0.810E-02
DAV:   7    -0.457873551221E+02    0.21641E-04   -0.51948E-05  9284   0.155E-01    0.323E-02
DAV:   8    -0.457873484246E+02    0.66975E-05   -0.19549E-05  9072   0.479E-02    0.889E-03
DAV:   9    -0.457873493283E+02   -0.90372E-06   -0.25287E-06  8908   0.136E-02    0.352E-03
DAV:  10    -0.457873496640E+02   -0.33572E-06   -0.36573E-07  8532   0.584E-03    0.142E-03
DAV:  11    -0.457873498244E+02   -0.16035E-06   -0.30024E-08  6824   0.163E-03    0.590E-04
DAV:  12    -0.457873498804E+02   -0.55996E-07   -0.52791E-09  4284   0.732E-04    0.391E-04
DAV:  13    -0.457873499023E+02   -0.21904E-07   -0.20715E-09  4248   0.426E-04    0.986E-05
DAV:  14    -0.457873499078E+02   -0.54933E-08   -0.76097E-10  4196   0.215E-04
   9 F= -.45787350E+02 E0= -.45785555E+02  d E =-.260157E-04  mag=     2.6313
 curvature:  -0.38 expect dE=-0.809E-05 dE for cont linesearch -0.233E-07
 trial: gam= 0.26841 g(F)=  0.116E-05 g(S)=  0.199E-04 ort = 0.207E-05 (trialstep = 0.128E+01)
 search vector abs. value=  0.273E-04
 bond charge predicted
       N       E                     dE             d eps       ncg     rms          rms(c)
DAV:   1    -0.457876401697E+02   -0.29027E-03   -0.12039E-02 10248   0.142E+00    0.196E-01
DAV:   2    -0.457875610187E+02    0.79151E-04   -0.31598E-03  8900   0.573E-01    0.157E-01
DAV:   3    -0.457877350171E+02   -0.17400E-03   -0.10609E-03  9028   0.688E-01    0.304E-01
DAV:   4    -0.457875135068E+02    0.22151E-03   -0.96908E-04  9208   0.521E-01    0.220E-01
DAV:   5    -0.457874579059E+02    0.55601E-04   -0.60467E-04  9084   0.381E-01    0.149E-01
DAV:   6    -0.457873845886E+02    0.73317E-04   -0.15780E-04  9884   0.224E-01    0.708E-02
DAV:   7    -0.457873714053E+02    0.13183E-04   -0.35217E-05  9420   0.114E-01    0.191E-02
DAV:   8    -0.457873703578E+02    0.10475E-05   -0.61110E-06  9156   0.309E-02    0.616E-03
DAV:   9    -0.457873704509E+02   -0.93030E-07   -0.10609E-06  9316   0.791E-03    0.249E-03
DAV:  10    -0.457873705422E+02   -0.91350E-07   -0.90378E-08  8360   0.294E-03    0.105E-03
DAV:  11    -0.457873706064E+02   -0.64145E-07   -0.22228E-08  5384   0.152E-03    0.797E-04
DAV:  12    -0.457873706326E+02   -0.26215E-07   -0.53843E-09  4212   0.806E-04    0.284E-04
DAV:  13    -0.457873706429E+02   -0.10281E-07   -0.14139E-09  4224   0.306E-04    0.138E-04
DAV:  14    -0.457873706448E+02   -0.19718E-08   -0.48268E-10  4196   0.172E-04
  10 F= -.45787371E+02 E0= -.45785592E+02  d E =-.207371E-04  mag=     2.6314
 trial-energy change:   -0.000021  1 .order   -0.000021   -0.000028   -0.000013
 step:   2.3242(harm=  2.4828)  dis= 0.00028  next Energy=   -45.787376 (dE=-0.263E-04)
 bond charge predicted
       N       E                     dE             d eps       ncg     rms          rms(c)
DAV:   1    -0.457875565455E+02   -0.18590E-03   -0.80325E-03 10248   0.116E+00    0.160E-01
DAV:   2    -0.457875026906E+02    0.53855E-04   -0.21031E-03  8900   0.467E-01    0.127E-01
DAV:   3    -0.457876200040E+02   -0.11731E-03   -0.70385E-04  9028   0.560E-01    0.248E-01
DAV:   4    -0.457874727526E+02    0.14725E-03   -0.64334E-04  9212   0.427E-01    0.181E-01
DAV:   5    -0.457874344290E+02    0.38324E-04   -0.40199E-04  9084   0.310E-01    0.121E-01
DAV:   6    -0.457873857477E+02    0.48681E-04   -0.10372E-04  9892   0.181E-01    0.562E-02
DAV:   7    -0.457873775339E+02    0.82138E-05   -0.22826E-05  9432   0.912E-02    0.159E-02
DAV:   8    -0.457873768308E+02    0.70305E-06   -0.39876E-06  9160   0.254E-02    0.503E-03
DAV:   9    -0.457873769188E+02   -0.87937E-07   -0.71070E-07  9324   0.647E-03    0.202E-03
DAV:  10    -0.457873769890E+02   -0.70246E-07   -0.59618E-08  7692   0.238E-03    0.851E-04
DAV:  11    -0.457873770392E+02   -0.50128E-07   -0.14526E-08  4764   0.124E-03    0.647E-04
DAV:  12    -0.457873770588E+02   -0.19660E-07   -0.39205E-09  4196   0.671E-04    0.233E-04
DAV:  13    -0.457873770674E+02   -0.86111E-08   -0.11225E-09  4196   0.256E-04
  11 F= -.45787377E+02 E0= -.45785612E+02  d E =-.271597E-04  mag=     2.6314
 curvature:  -1.54 expect dE=-0.152E-04 dE for cont linesearch -0.937E-07
 trial: gam= 0.43435 g(F)=  0.129E-05 g(S)=  0.862E-05 ort = 0.129E-05 (trialstep = 0.149E+01)
 search vector abs. value=  0.162E-04
 bond charge predicted
       N       E                     dE             d eps       ncg     rms          rms(c)
DAV:   1    -0.457877363247E+02   -0.35927E-03   -0.97973E-03  9648   0.721E-01    0.179E-01
DAV:   2    -0.457878276318E+02   -0.91307E-04   -0.15663E-03  9232   0.538E-01    0.396E-01
DAV:   3    -0.457875773565E+02    0.25028E-03   -0.18102E-03  9136   0.614E-01    0.248E-01
DAV:   4    -0.457875800211E+02   -0.26646E-05   -0.63616E-04  9504   0.458E-01    0.219E-01
DAV:   5    -0.457874282396E+02    0.15178E-03   -0.36264E-04  9188   0.434E-01    0.101E-01
DAV:   6    -0.457874395485E+02   -0.11309E-04   -0.13797E-04  9616   0.258E-01    0.117E-01
DAV:   7    -0.457873881634E+02    0.51385E-04   -0.59892E-05  8940   0.183E-01    0.160E-02
DAV:   8    -0.457873877012E+02    0.46218E-06   -0.10200E-05  9060   0.257E-02    0.601E-03
DAV:   9    -0.457873876743E+02    0.26896E-07   -0.91134E-07  9524   0.776E-03    0.428E-03
DAV:  10    -0.457873876625E+02    0.11856E-07   -0.14719E-07  9548   0.439E-03    0.138E-03
DAV:  11    -0.457873876589E+02    0.36052E-08   -0.38810E-08  6740   0.207E-03
  12 F= -.45787388E+02 E0= -.45785629E+02  d E =-.105914E-04  mag=     2.6310
 trial-energy change:   -0.000011  1 .order   -0.000011   -0.000016   -0.000005
 step:   2.2380(harm=  2.2897)  dis= 0.00008  next Energy=   -45.787389 (dE=-0.120E-04)
 bond charge predicted
       N       E                     dE             d eps       ncg     rms          rms(c)
DAV:   1    -0.457874775020E+02   -0.89840E-04   -0.24864E-03  9616   0.363E-01    0.902E-02
DAV:   2    -0.457875056679E+02   -0.28166E-04   -0.40714E-04  9236   0.275E-01    0.204E-01
DAV:   3    -0.457874363790E+02    0.69289E-04   -0.46118E-04  9136   0.316E-01    0.124E-01
DAV:   4    -0.457874374849E+02   -0.11059E-05   -0.15889E-04  9520   0.229E-01    0.110E-01
DAV:   5    -0.457873994377E+02    0.38047E-04   -0.92205E-05  9184   0.219E-01    0.514E-02
DAV:   6    -0.457874022159E+02   -0.27782E-05   -0.35078E-05  9604   0.131E-01    0.590E-02
DAV:   7    -0.457873892598E+02    0.12956E-04   -0.15151E-05  8944   0.918E-02    0.833E-03
DAV:   8    -0.457873890969E+02    0.16288E-06   -0.26029E-06  9132   0.131E-02    0.306E-03
DAV:   9    -0.457873890785E+02    0.18386E-07   -0.23944E-07  9460   0.399E-03    0.216E-03
DAV:  10    -0.457873890752E+02    0.33142E-08   -0.37021E-08  6708   0.223E-03
  13 F= -.45787389E+02 E0= -.45785633E+02  d E =-.120078E-04  mag=     2.6308
 curvature:  -1.76 expect dE=-0.213E-05 dE for cont linesearch -0.461E-07
 trial: gam= 0.13501 g(F)=  0.270E-06 g(S)=  0.941E-06 ort = 0.650E-06 (trialstep = 0.164E+01)
 search vector abs. value=  0.168E-05
 reached required accuracy - stopping structural energy minimisation
 writing wavefunctions
