   3   3   0   0
  0.1365057E+02  0.2792785E-09  0.2792785E-09  0.6062708E-09  0.5000000E-15
  1.000000000000000E-004
  CAR 
 unknown system                          
     28.22147496    -59.25208436  301      8.38986701      1.00000000
    -59.252  0.0000E+00  0.0000E+00  0.0000E+00  0.0000E+00
    -58.961  0.0000E+00  0.0000E+00  0.0000E+00  0.0000E+00
    -58.669  0.0000E+00  0.0000E+00  0.0000E+00  0.0000E+00
    -58.377  0.0000E+00  0.0000E+00  0.0000E+00  0.0000E+00
    -58.086  0.0000E+00  0.0000E+00  0.0000E+00  0.0000E+00
    -57.794  0.0000E+00  0.0000E+00  0.0000E+00  0.0000E+00
    -57.503  0.0000E+00  0.0000E+00  0.0000E+00  0.0000E+00
    -57.211  0.0000E+00  0.0000E+00  0.0000E+00  0.0000E+00
    -56.919  0.0000E+00  0.0000E+00  0.0000E+00  0.0000E+00
    -56.628  0.0000E+00  0.0000E+00  0.0000E+00  0.0000E+00
    -56.336  0.0000E+00  0.0000E+00  0.0000E+00  0.0000E+00
    -56.045  0.0000E+00  0.0000E+00  0.0000E+00  0.0000E+00
    -55.753  0.0000E+00  0.0000E+00  0.0000E+00  0.0000E+00
    -55.462  0.0000E+00  0.0000E+00  0.0000E+00  0.0000E+00
    -55.170  0.0000E+00  0.0000E+00  0.1000E+01  0.1000E+01
    -54.878  0.0000E+00  0.0000E+00  0.3000E+01  0.3000E+01
    -54.587  0.0000E+00  0.0000E+00  0.3000E+01  0.3000E+01
    -54.295  0.0000E+00  0.0000E+00  0.3000E+01  0.3000E+01
    -54.004  0.0000E+00  0.0000E+00  0.3000E+01  0.3000E+01
    -53.712  0.0000E+00  0.0000E+00  0.3000E+01  0.3000E+01
    -53.421  0.0000E+00  0.0000E+00  0.3000E+01  0.3000E+01
    -53.129  0.0000E+00  0.0000E+00  0.3000E+01  0.3000E+01
    -52.837  0.0000E+00  0.0000E+00  0.3000E+01  0.3000E+01
    -52.546  0.0000E+00  0.0000E+00  0.3000E+01  0.3000E+01
    -52.254  0.0000E+00  0.0000E+00  0.3000E+01  0.3000E+01
    -51.963  0.0000E+00  0.0000E+00  0.3000E+01  0.3000E+01
    -51.671  0.0000E+00  0.0000E+00  0.3000E+01  0.3000E+01
    -51.379  0.0000E+00  0.0000E+00  0.3000E+01  0.3000E+01
    -51.088  0.0000E+00  0.0000E+00  0.3000E+01  0.3000E+01
    -50.796  0.0000E+00  0.0000E+00  0.3000E+01  0.3000E+01
    -50.505  0.0000E+00  0.0000E+00  0.3000E+01  0.3000E+01
    -50.213  0.0000E+00  0.0000E+00  0.3000E+01  0.3000E+01
    -49.922  0.0000E+00  0.0000E+00  0.3000E+01  0.3000E+01
    -49.630  0.0000E+00  0.0000E+00  0.3000E+01  0.3000E+01
    -49.338  0.0000E+00  0.0000E+00  0.3000E+01  0.3000E+01
    -49.047  0.0000E+00  0.0000E+00  0.3000E+01  0.3000E+01
    -48.755  0.0000E+00  0.0000E+00  0.3000E+01  0.3000E+01
    -48.464  0.0000E+00  0.0000E+00  0.3000E+01  0.3000E+01
    -48.172  0.0000E+00  0.0000E+00  0.3000E+01  0.3000E+01
    -47.881  0.0000E+00  0.0000E+00  0.3000E+01  0.3000E+01
    -47.589  0.0000E+00  0.0000E+00  0.3000E+01  0.3000E+01
    -47.297  0.0000E+00  0.0000E+00  0.3000E+01  0.3000E+01
    -47.006  0.0000E+00  0.0000E+00  0.3000E+01  0.3000E+01
    -46.714  0.0000E+00  0.0000E+00  0.3000E+01  0.3000E+01
    -46.423  0.0000E+00  0.0000E+00  0.3000E+01  0.3000E+01
    -46.131  0.0000E+00  0.0000E+00  0.3000E+01  0.3000E+01
    -45.839  0.0000E+00  0.0000E+00  0.3000E+01  0.3000E+01
    -45.548  0.0000E+00  0.0000E+00  0.3000E+01  0.3000E+01
    -45.256  0.0000E+00  0.0000E+00  0.3000E+01  0.3000E+01
    -44.965  0.0000E+00  0.0000E+00  0.3000E+01  0.3000E+01
    -44.673  0.0000E+00  0.0000E+00  0.3000E+01  0.3000E+01
    -44.382  0.0000E+00  0.0000E+00  0.3000E+01  0.3000E+01
    -44.090  0.0000E+00  0.0000E+00  0.3000E+01  0.3000E+01
    -43.798  0.0000E+00  0.0000E+00  0.3000E+01  0.3000E+01
    -43.507  0.0000E+00  0.0000E+00  0.3000E+01  0.3000E+01
    -43.215  0.0000E+00  0.0000E+00  0.3000E+01  0.3000E+01
    -42.924  0.0000E+00  0.0000E+00  0.3000E+01  0.3000E+01
    -42.632  0.0000E+00  0.0000E+00  0.3000E+01  0.3000E+01
    -42.341  0.0000E+00  0.0000E+00  0.3000E+01  0.3000E+01
    -42.049  0.0000E+00  0.0000E+00  0.3000E+01  0.3000E+01
    -41.757  0.0000E+00  0.0000E+00  0.3000E+01  0.3000E+01
    -41.466  0.0000E+00  0.0000E+00  0.3000E+01  0.3000E+01
    -41.174  0.0000E+00  0.0000E+00  0.3000E+01  0.3000E+01
    -40.883  0.0000E+00  0.0000E+00  0.3000E+01  0.3000E+01
    -40.591  0.0000E+00  0.0000E+00  0.3000E+01  0.3000E+01
    -40.299  0.0000E+00  0.0000E+00  0.3000E+01  0.3000E+01
    -40.008  0.0000E+00  0.0000E+00  0.3000E+01  0.3000E+01
    -39.716  0.0000E+00  0.0000E+00  0.3000E+01  0.3000E+01
    -39.425  0.0000E+00  0.0000E+00  0.3000E+01  0.3000E+01
    -39.133  0.0000E+00  0.0000E+00  0.3000E+01  0.3000E+01
    -38.842  0.0000E+00  0.0000E+00  0.3000E+01  0.3000E+01
    -38.550  0.0000E+00  0.0000E+00  0.3000E+01  0.3000E+01
    -38.258  0.0000E+00  0.0000E+00  0.3000E+01  0.3000E+01
    -37.967  0.0000E+00  0.0000E+00  0.3000E+01  0.3000E+01
    -37.675  0.0000E+00  0.0000E+00  0.3000E+01  0.3000E+01
    -37.384  0.0000E+00  0.0000E+00  0.3000E+01  0.3000E+01
    -37.092  0.0000E+00  0.0000E+00  0.3000E+01  0.3000E+01
    -36.801  0.0000E+00  0.0000E+00  0.3000E+01  0.3000E+01
    -36.509  0.0000E+00  0.0000E+00  0.3000E+01  0.3000E+01
    -36.217  0.0000E+00  0.0000E+00  0.3000E+01  0.3000E+01
    -35.926  0.0000E+00  0.0000E+00  0.3000E+01  0.3000E+01
    -35.634  0.0000E+00  0.0000E+00  0.3000E+01  0.3000E+01
    -35.343  0.0000E+00  0.0000E+00  0.3000E+01  0.3000E+01
    -35.051  0.0000E+00  0.0000E+00  0.3000E+01  0.3000E+01
    -34.759  0.0000E+00  0.0000E+00  0.3000E+01  0.3000E+01
    -34.468  0.0000E+00  0.0000E+00  0.3000E+01  0.3000E+01
    -34.176  0.0000E+00  0.0000E+00  0.3000E+01  0.3000E+01
    -33.885  0.0000E+00  0.0000E+00  0.3000E+01  0.3000E+01
    -33.593  0.0000E+00  0.0000E+00  0.3000E+01  0.3000E+01
    -33.302  0.0000E+00  0.0000E+00  0.3000E+01  0.3000E+01
    -33.010  0.0000E+00  0.0000E+00  0.3000E+01  0.3000E+01
    -32.718  0.0000E+00  0.0000E+00  0.3000E+01  0.3000E+01
    -32.427  0.0000E+00  0.0000E+00  0.3000E+01  0.3000E+01
    -32.135  0.0000E+00  0.0000E+00  0.3000E+01  0.3000E+01
    -31.844  0.0000E+00  0.0000E+00  0.3000E+01  0.3000E+01
    -31.552  0.0000E+00  0.0000E+00  0.3000E+01  0.3000E+01
    -31.261  0.0000E+00  0.0000E+00  0.3000E+01  0.3000E+01
    -30.969  0.0000E+00  0.0000E+00  0.3000E+01  0.3000E+01
    -30.677  0.0000E+00  0.0000E+00  0.3000E+01  0.3000E+01
    -30.386  0.0000E+00  0.0000E+00  0.3000E+01  0.3000E+01
    -30.094  0.0000E+00  0.0000E+00  0.3000E+01  0.3000E+01
    -29.803  0.0000E+00  0.0000E+00  0.3000E+01  0.3000E+01
    -29.511  0.0000E+00  0.0000E+00  0.3000E+01  0.3000E+01
    -29.219  0.0000E+00  0.0000E+00  0.3000E+01  0.3000E+01
    -28.928  0.0000E+00  0.0000E+00  0.3000E+01  0.3000E+01
    -28.636  0.0000E+00  0.0000E+00  0.3000E+01  0.3000E+01
    -28.345  0.0000E+00  0.0000E+00  0.3000E+01  0.3000E+01
    -28.053  0.0000E+00  0.0000E+00  0.3000E+01  0.3000E+01
    -27.762  0.0000E+00  0.0000E+00  0.3000E+01  0.3000E+01
    -27.470  0.0000E+00  0.0000E+00  0.3000E+01  0.3000E+01
    -27.178  0.0000E+00  0.0000E+00  0.3000E+01  0.3000E+01
    -26.887  0.0000E+00  0.0000E+00  0.3000E+01  0.3000E+01
    -26.595  0.0000E+00  0.0000E+00  0.3000E+01  0.3000E+01
    -26.304  0.0000E+00  0.0000E+00  0.3000E+01  0.3000E+01
    -26.012  0.0000E+00  0.0000E+00  0.3000E+01  0.3000E+01
    -25.721  0.0000E+00  0.0000E+00  0.3000E+01  0.3000E+01
    -25.429  0.0000E+00  0.0000E+00  0.3000E+01  0.3000E+01
    -25.137  0.0000E+00  0.0000E+00  0.3000E+01  0.3000E+01
    -24.846  0.0000E+00  0.0000E+00  0.3000E+01  0.3000E+01
    -24.554  0.0000E+00  0.0000E+00  0.3000E+01  0.3000E+01
    -24.263  0.0000E+00  0.0000E+00  0.3000E+01  0.3000E+01
    -23.971  0.0000E+00  0.0000E+00  0.3000E+01  0.3000E+01
    -23.680  0.0000E+00  0.0000E+00  0.3000E+01  0.3000E+01
    -23.388  0.0000E+00  0.0000E+00  0.3000E+01  0.3000E+01
    -23.096  0.0000E+00  0.0000E+00  0.3000E+01  0.3000E+01
    -22.805  0.0000E+00  0.0000E+00  0.3000E+01  0.3000E+01
    -22.513  0.0000E+00  0.0000E+00  0.3000E+01  0.3000E+01
    -22.222  0.0000E+00  0.0000E+00  0.3000E+01  0.3000E+01
    -21.930  0.0000E+00  0.0000E+00  0.3000E+01  0.3000E+01
    -21.638  0.0000E+00  0.0000E+00  0.3000E+01  0.3000E+01
    -21.347  0.0000E+00  0.0000E+00  0.3000E+01  0.3000E+01
    -21.055  0.0000E+00  0.0000E+00  0.3000E+01  0.3000E+01
    -20.764  0.0000E+00  0.0000E+00  0.3000E+01  0.3000E+01
    -20.472  0.0000E+00  0.0000E+00  0.3000E+01  0.3000E+01
    -20.181  0.0000E+00  0.0000E+00  0.3000E+01  0.3000E+01
    -19.889  0.0000E+00  0.0000E+00  0.3000E+01  0.3000E+01
    -19.597  0.0000E+00  0.0000E+00  0.3000E+01  0.3000E+01
    -19.306  0.0000E+00  0.0000E+00  0.3000E+01  0.3000E+01
    -19.014  0.0000E+00  0.0000E+00  0.3000E+01  0.3000E+01
    -18.723  0.0000E+00  0.0000E+00  0.3000E+01  0.3000E+01
    -18.431  0.0000E+00  0.0000E+00  0.3000E+01  0.3000E+01
    -18.140  0.0000E+00  0.0000E+00  0.3000E+01  0.3000E+01
    -17.848  0.0000E+00  0.0000E+00  0.3000E+01  0.3000E+01
    -17.556  0.0000E+00  0.0000E+00  0.3000E+01  0.3000E+01
    -17.265  0.0000E+00  0.0000E+00  0.3000E+01  0.3000E+01
    -16.973  0.0000E+00  0.0000E+00  0.3000E+01  0.3000E+01
    -16.682  0.0000E+00  0.0000E+00  0.3000E+01  0.3000E+01
    -16.390  0.0000E+00  0.0000E+00  0.3000E+01  0.3000E+01
    -16.098  0.0000E+00  0.0000E+00  0.3000E+01  0.3000E+01
    -15.807  0.0000E+00  0.0000E+00  0.3000E+01  0.3000E+01
    -15.515  0.0000E+00  0.0000E+00  0.3000E+01  0.3000E+01
    -15.224  0.0000E+00  0.0000E+00  0.3000E+01  0.3000E+01
    -14.932  0.0000E+00  0.0000E+00  0.3000E+01  0.3000E+01
    -14.641  0.0000E+00  0.0000E+00  0.3000E+01  0.3000E+01
    -14.349  0.0000E+00  0.0000E+00  0.3000E+01  0.3000E+01
    -14.057  0.0000E+00  0.0000E+00  0.3000E+01  0.3000E+01
    -13.766  0.0000E+00  0.0000E+00  0.3000E+01  0.3000E+01
    -13.474  0.0000E+00  0.0000E+00  0.3000E+01  0.3000E+01
    -13.183  0.0000E+00  0.0000E+00  0.3000E+01  0.3000E+01
    -12.891  0.0000E+00  0.0000E+00  0.3000E+01  0.3000E+01
    -12.600  0.0000E+00  0.0000E+00  0.3000E+01  0.3000E+01
    -12.308  0.0000E+00  0.0000E+00  0.3000E+01  0.3000E+01
    -12.016  0.0000E+00  0.0000E+00  0.3000E+01  0.3000E+01
    -11.725  0.0000E+00  0.0000E+00  0.3000E+01  0.3000E+01
    -11.433  0.0000E+00  0.0000E+00  0.3000E+01  0.3000E+01
    -11.142  0.0000E+00  0.0000E+00  0.3000E+01  0.3000E+01
    -10.850  0.0000E+00  0.0000E+00  0.3000E+01  0.3000E+01
    -10.558  0.0000E+00  0.0000E+00  0.3000E+01  0.3000E+01
    -10.267  0.0000E+00  0.0000E+00  0.3000E+01  0.3000E+01
     -9.975  0.0000E+00  0.0000E+00  0.3000E+01  0.3000E+01
     -9.684  0.0000E+00  0.0000E+00  0.3000E+01  0.3000E+01
     -9.392  0.0000E+00  0.0000E+00  0.3000E+01  0.3000E+01
     -9.101  0.0000E+00  0.0000E+00  0.3000E+01  0.3000E+01
     -8.809  0.0000E+00  0.0000E+00  0.3000E+01  0.3000E+01
     -8.517  0.0000E+00  0.0000E+00  0.3000E+01  0.3000E+01
     -8.226  0.0000E+00  0.0000E+00  0.3000E+01  0.3000E+01
     -7.934  0.0000E+00  0.0000E+00  0.3000E+01  0.3000E+01
     -7.643  0.0000E+00  0.0000E+00  0.3000E+01  0.3000E+01
     -7.351  0.0000E+00  0.0000E+00  0.3000E+01  0.3000E+01
     -7.060  0.0000E+00  0.0000E+00  0.3000E+01  0.3000E+01
     -6.768  0.0000E+00  0.0000E+00  0.3000E+01  0.3000E+01
     -6.476  0.0000E+00  0.0000E+00  0.3000E+01  0.3000E+01
     -6.185  0.0000E+00  0.0000E+00  0.3000E+01  0.3000E+01
     -5.893  0.0000E+00  0.0000E+00  0.3000E+01  0.3000E+01
     -5.602  0.0000E+00  0.0000E+00  0.3000E+01  0.3000E+01
     -5.310  0.0000E+00  0.0000E+00  0.3000E+01  0.3000E+01
     -5.018  0.0000E+00  0.0000E+00  0.3000E+01  0.3000E+01
     -4.727  0.0000E+00  0.0000E+00  0.3000E+01  0.3000E+01
     -4.435  0.0000E+00  0.0000E+00  0.3000E+01  0.3000E+01
     -4.144  0.0000E+00  0.0000E+00  0.3000E+01  0.3000E+01
     -3.852  0.0000E+00  0.0000E+00  0.3000E+01  0.3000E+01
     -3.561  0.0000E+00  0.0000E+00  0.3000E+01  0.3000E+01
     -3.269  0.0000E+00  0.0000E+00  0.3000E+01  0.3000E+01
     -2.977  0.0000E+00  0.0000E+00  0.3000E+01  0.3000E+01
     -2.686  0.0000E+00  0.0000E+00  0.3000E+01  0.3000E+01
     -2.394  0.2469E-01  0.2469E-01  0.3001E+01  0.3001E+01
     -2.103  0.9754E-01  0.9754E-01  0.3022E+01  0.3022E+01
     -1.811  0.1468E+00  0.1468E+00  0.3057E+01  0.3057E+01
     -1.520  0.1469E+00  0.1469E+00  0.3101E+01  0.3101E+01
     -1.228  0.1455E+00  0.1455E+00  0.3143E+01  0.3143E+01
     -0.936  0.1482E+00  0.1482E+00  0.3185E+01  0.3185E+01
     -0.645  0.1756E+00  0.1756E+00  0.3233E+01  0.3233E+01
     -0.353  0.1968E+00  0.1968E+00  0.3287E+01  0.3287E+01
     -0.062  0.2213E+00  0.2213E+00  0.3348E+01  0.3348E+01
      0.230  0.2430E+00  0.2430E+00  0.3416E+01  0.3416E+01
      0.522  0.2671E+00  0.2671E+00  0.3490E+01  0.3490E+01
      0.813  0.2880E+00  0.2880E+00  0.3571E+01  0.3571E+01
      1.105  0.3094E+00  0.3094E+00  0.3658E+01  0.3658E+01
      1.396  0.3162E+00  0.3162E+00  0.3750E+01  0.3750E+01
      1.688  0.3236E+00  0.3236E+00  0.3843E+01  0.3843E+01
      1.979  0.3347E+00  0.3347E+00  0.3939E+01  0.3939E+01
      2.271  0.3494E+00  0.3494E+00  0.4038E+01  0.4038E+01
      2.563  0.3941E+00  0.3941E+00  0.4144E+01  0.4144E+01
      2.854  0.4737E+00  0.4737E+00  0.4274E+01  0.4274E+01
      3.146  0.4481E+00  0.4481E+00  0.4411E+01  0.4411E+01
      3.437  0.4206E+00  0.4206E+00  0.4536E+01  0.4536E+01
      3.729  0.5433E+00  0.5433E+00  0.4672E+01  0.4672E+01
      4.020  0.6649E+00  0.6649E+00  0.4865E+01  0.4865E+01
      4.312  0.5345E+00  0.5345E+00  0.5035E+01  0.5035E+01
      4.604  0.4570E+00  0.4570E+00  0.5152E+01  0.5152E+01
      4.895  0.9100E+00  0.9100E+00  0.5348E+01  0.5348E+01
      5.187  0.9607E+00  0.9607E+00  0.5632E+01  0.5632E+01
      5.478  0.1856E+01  0.1856E+01  0.6012E+01  0.6012E+01
      5.770  0.2207E+01  0.2207E+01  0.6484E+01  0.6484E+01
      6.062  0.2503E+01  0.2503E+01  0.7303E+01  0.7303E+01
      6.353  0.1546E+01  0.1546E+01  0.7900E+01  0.7900E+01
      6.645  0.2232E+01  0.2232E+01  0.8464E+01  0.8464E+01
      6.936  0.1274E+01  0.1274E+01  0.9099E+01  0.9099E+01
      7.228  0.1656E+01  0.1656E+01  0.9712E+01  0.9712E+01
      7.519  0.1177E+01  0.1177E+01  0.1016E+02  0.1016E+02
      7.811  0.1169E+01  0.1169E+01  0.1045E+02  0.1045E+02
      8.103  0.1142E+01  0.1142E+01  0.1078E+02  0.1078E+02
      8.394  0.3980E+00  0.3980E+00  0.1100E+02  0.1100E+02
      8.686  0.4997E+00  0.4997E+00  0.1112E+02  0.1112E+02
      8.977  0.5198E+00  0.5198E+00  0.1131E+02  0.1131E+02
      9.269  0.2890E+00  0.2890E+00  0.1142E+02  0.1142E+02
      9.560  0.2544E+00  0.2544E+00  0.1149E+02  0.1149E+02
      9.852  0.7570E+00  0.7570E+00  0.1163E+02  0.1163E+02
     10.144  0.5229E+00  0.5229E+00  0.1182E+02  0.1182E+02
     10.435  0.4968E+00  0.4968E+00  0.1197E+02  0.1197E+02
     10.727  0.5141E+00  0.5141E+00  0.1211E+02  0.1211E+02
     11.018  0.5867E+00  0.5867E+00  0.1228E+02  0.1228E+02
     11.310  0.6128E+00  0.6128E+00  0.1246E+02  0.1246E+02
     11.601  0.6336E+00  0.6336E+00  0.1264E+02  0.1264E+02
     11.893  0.6134E+00  0.6134E+00  0.1282E+02  0.1282E+02
     12.185  0.6867E+00  0.6867E+00  0.1301E+02  0.1301E+02
     12.476  0.6101E+00  0.6101E+00  0.1320E+02  0.1320E+02
     12.768  0.6299E+00  0.6299E+00  0.1338E+02  0.1338E+02
     13.059  0.5970E+00  0.5970E+00  0.1356E+02  0.1356E+02
     13.351  0.5568E+00  0.5568E+00  0.1372E+02  0.1372E+02
     13.643  0.6202E+00  0.6202E+00  0.1390E+02  0.1390E+02
     13.934  0.6540E+00  0.6540E+00  0.1408E+02  0.1408E+02
     14.226  0.6417E+00  0.6417E+00  0.1427E+02  0.1427E+02
     14.517  0.6012E+00  0.6012E+00  0.1446E+02  0.1446E+02
     14.809  0.6007E+00  0.6007E+00  0.1463E+02  0.1463E+02
     15.100  0.6587E+00  0.6587E+00  0.1481E+02  0.1481E+02
     15.392  0.7121E+00  0.7121E+00  0.1501E+02  0.1501E+02
     15.684  0.7492E+00  0.7492E+00  0.1523E+02  0.1523E+02
     15.975  0.7169E+00  0.7169E+00  0.1544E+02  0.1544E+02
     16.267  0.7268E+00  0.7268E+00  0.1565E+02  0.1565E+02
     16.558  0.6762E+00  0.6762E+00  0.1586E+02  0.1586E+02
     16.850  0.6646E+00  0.6646E+00  0.1605E+02  0.1605E+02
     17.141  0.6826E+00  0.6826E+00  0.1625E+02  0.1625E+02
     17.433  0.6784E+00  0.6784E+00  0.1645E+02  0.1645E+02
     17.725  0.6126E+00  0.6126E+00  0.1664E+02  0.1664E+02
     18.016  0.6299E+00  0.6299E+00  0.1682E+02  0.1682E+02
     18.308  0.7149E+00  0.7149E+00  0.1701E+02  0.1701E+02
     18.599  0.7421E+00  0.7421E+00  0.1723E+02  0.1723E+02
     18.891  0.7730E+00  0.7730E+00  0.1745E+02  0.1745E+02
     19.183  0.8546E+00  0.8546E+00  0.1768E+02  0.1768E+02
     19.474  0.7713E+00  0.7713E+00  0.1792E+02  0.1792E+02
     19.766  0.7429E+00  0.7429E+00  0.1814E+02  0.1814E+02
     20.057  0.8676E+00  0.8676E+00  0.1838E+02  0.1838E+02
     20.349  0.7399E+00  0.7399E+00  0.1861E+02  0.1861E+02
     20.640  0.6980E+00  0.6980E+00  0.1881E+02  0.1881E+02
     20.932  0.6758E+00  0.6757E+00  0.1901E+02  0.1901E+02
     21.224  0.5659E+00  0.5659E+00  0.1919E+02  0.1919E+02
     21.515  0.5828E+00  0.5827E+00  0.1936E+02  0.1936E+02
     21.807  0.4566E+00  0.4566E+00  0.1952E+02  0.1952E+02
     22.098  0.3864E+00  0.3863E+00  0.1964E+02  0.1964E+02
     22.390  0.3082E+00  0.3082E+00  0.1974E+02  0.1974E+02
     22.681  0.2752E+00  0.2751E+00  0.1982E+02  0.1982E+02
     22.973  0.2719E+00  0.2720E+00  0.1990E+02  0.1990E+02
     23.265  0.1658E+00  0.1658E+00  0.1997E+02  0.1997E+02
     23.556  0.1144E-01  0.1146E-01  0.2000E+02  0.2000E+02
     23.848  0.2136E-02  0.2150E-02  0.2000E+02  0.2000E+02
     24.139  0.1481E-03  0.1529E-03  0.2000E+02  0.2000E+02
     24.431  0.0000E+00  0.0000E+00  0.2000E+02  0.2000E+02
     24.723  0.0000E+00  0.0000E+00  0.2000E+02  0.2000E+02
     25.014  0.0000E+00  0.0000E+00  0.2000E+02  0.2000E+02
     25.306  0.0000E+00  0.0000E+00  0.2000E+02  0.2000E+02
     25.597  0.0000E+00  0.0000E+00  0.2000E+02  0.2000E+02
     25.889  0.0000E+00  0.0000E+00  0.2000E+02  0.2000E+02
     26.180  0.0000E+00  0.0000E+00  0.2000E+02  0.2000E+02
     26.472  0.0000E+00  0.0000E+00  0.2000E+02  0.2000E+02
     26.764  0.0000E+00  0.0000E+00  0.2000E+02  0.2000E+02
     27.055  0.0000E+00  0.0000E+00  0.2000E+02  0.2000E+02
     27.347  0.0000E+00  0.0000E+00  0.2000E+02  0.2000E+02
     27.638  0.0000E+00  0.0000E+00  0.2000E+02  0.2000E+02
     27.930  0.0000E+00  0.0000E+00  0.2000E+02  0.2000E+02
     28.221  0.0000E+00  0.0000E+00  0.2000E+02  0.2000E+02
