 running on   24 total cores
 distrk:  each k-point on   24 cores,    1 groups
 distr:  one band on    6 cores,    4 groups
 using from now: INCAR     
 vasp.5.4.4.18Apr17-6-g9f103f2a35 (build Jan 03 2018 06:08:52) complex          
  
 POSCAR found :  2 types and       3 ions
 scaLAPACK will be used
 WARNING: for PREC=h ENMAX is automatically increase by 25 %
        this was not the case for versions prior to vasp.4.4
 WARNING: for PREC=h ENMAX is automatically increase by 25 %
        this was not the case for versions prior to vasp.4.4
 LDA part: xc-table for Pade appr. of Perdew
 POSCAR, INCAR and KPOINTS ok, starting setup
 FFT: planning ...
 WAVECAR not read
 entering main loop
       N       E                     dE             d eps       ncg     rms          rms(c)
DAV:   1     0.129149282333E+03    0.12915E+03   -0.12348E+04  4728   0.105E+03
DAV:   2    -0.116275584908E+02   -0.14078E+03   -0.13527E+03  4156   0.299E+02
DAV:   3    -0.154542708062E+02   -0.38267E+01   -0.37937E+01  4940   0.566E+01
DAV:   4    -0.155153177407E+02   -0.61047E-01   -0.61027E-01  4556   0.694E+00
DAV:   5    -0.155173205530E+02   -0.20028E-02   -0.20028E-02  4788   0.131E+00    0.214E+01
DAV:   6    -0.330708250205E+02   -0.17554E+02   -0.20689E+02  5096   0.165E+02    0.305E+01
DAV:   7    -0.142837824993E+02    0.18787E+02   -0.38188E+01  5200   0.842E+01    0.110E+01
DAV:   8    -0.126872256322E+02    0.15966E+01   -0.84047E+00  5276   0.372E+01    0.288E+00
DAV:   9    -0.127298149545E+02   -0.42589E-01   -0.11645E+00  4700   0.129E+01    0.273E+00
DAV:  10    -0.126604109991E+02    0.69404E-01   -0.15828E-01  5388   0.461E+00    0.806E-01
DAV:  11    -0.126559477398E+02    0.44633E-02   -0.71902E-02  5696   0.270E+00    0.471E-01
DAV:  12    -0.126550894020E+02    0.85834E-03   -0.30877E-03  4624   0.485E-01    0.335E-01
DAV:  13    -0.126538938639E+02    0.11955E-02   -0.41592E-03  5280   0.616E-01    0.548E-02
DAV:  14    -0.126538886628E+02    0.52011E-05   -0.18235E-04  5648   0.998E-02    0.173E-02
DAV:  15    -0.126538927573E+02   -0.40944E-05   -0.19534E-05  5232   0.363E-02    0.154E-02
DAV:  16    -0.126538905180E+02    0.22392E-05   -0.47678E-06  5600   0.190E-02    0.533E-03
DAV:  17    -0.126538898533E+02    0.66479E-06   -0.16294E-06  6028   0.119E-02    0.118E-03
DAV:  18    -0.126538897971E+02    0.56171E-07   -0.63319E-08  4452   0.201E-03    0.719E-04
DAV:  19    -0.126538897504E+02    0.46674E-07   -0.24036E-08  2508   0.152E-03    0.176E-04
DAV:  20    -0.126538897361E+02    0.14262E-07   -0.15834E-09  2320   0.385E-04    0.757E-05
DAV:  21    -0.126538897350E+02    0.11319E-08   -0.23745E-10  2280   0.134E-04
   1 F= -.12653890E+02 E0= -.12653832E+02  d E =-.126539E+02  mag=    -0.0000
 curvature:   0.00 expect dE= 0.000E+00 dE for cont linesearch  0.000E+00
 trial: gam= 0.00000 g(F)=  0.649E+00 g(S)=  0.460E+01 ort = 0.000E+00 (trialstep = 0.100E+01)
 search vector abs. value=  0.525E+01
 bond charge predicted
       N       E                     dE             d eps       ncg     rms          rms(c)
DAV:   1    -0.107697668305E+03   -0.95044E+02   -0.15451E+03  4232   0.622E+02    0.677E+01
DAV:   2    -0.268721591828E+02    0.80826E+02   -0.37765E+02  4948   0.181E+02    0.295E+01
DAV:   3    -0.330052724616E+02   -0.61331E+01   -0.24126E+02  4872   0.140E+02    0.323E+01
DAV:   4    -0.146242068563E+02    0.18381E+02   -0.42474E+01  5192   0.777E+01    0.509E+00
DAV:   5    -0.142101091593E+02    0.41410E+00   -0.18461E+00  4580   0.158E+01    0.822E+00
DAV:   6    -0.138066393411E+02    0.40347E+00   -0.50896E+00  5000   0.232E+01    0.630E+00
DAV:   7    -0.134588604523E+02    0.34778E+00   -0.10338E+00  5012   0.849E+00    0.154E+00
DAV:   8    -0.134264449561E+02    0.32415E-01   -0.17686E-01  4472   0.479E+00    0.546E-01
DAV:   9    -0.134267779629E+02   -0.33301E-03   -0.32720E-02  5060   0.158E+00    0.565E-01
DAV:  10    -0.134245487211E+02    0.22292E-02   -0.39713E-03  5284   0.534E-01    0.231E-01
DAV:  11    -0.134240954563E+02    0.45326E-03   -0.11077E-03  5760   0.222E-01    0.424E-02
DAV:  12    -0.134240925638E+02    0.28925E-05   -0.10877E-04  5508   0.806E-02    0.689E-03
DAV:  13    -0.134240935792E+02   -0.10155E-05   -0.27419E-06  4540   0.122E-02    0.652E-03
DAV:  14    -0.134240932798E+02    0.29945E-06   -0.94505E-07  5348   0.958E-03    0.580E-04
DAV:  15    -0.134240932019E+02    0.77916E-07   -0.76481E-08  4440   0.203E-03    0.338E-04
DAV:  16    -0.134240931845E+02    0.17410E-07   -0.69933E-09  2392   0.715E-04    0.383E-04
DAV:  17    -0.134240931943E+02   -0.98057E-08   -0.22709E-09  2300   0.550E-04
   2 F= -.13424093E+02 E0= -.13423603E+02  d E =-.770203E+00  mag=     0.0000
 trial-energy change:   -0.770203  1 .order   -1.078016   -5.249655    3.093623
 step:   0.5751(harm=  0.6292)  dis= 0.04155  next Energy=   -14.104918 (dE=-0.145E+01)
 bond charge predicted
       N       E                     dE             d eps       ncg     rms          rms(c)
DAV:   1    -0.563145662397E+02   -0.42890E+02   -0.38590E+02  4448   0.213E+02    0.714E+01
DAV:   2    -0.138011245177E+03   -0.81697E+02   -0.15350E+03  5760   0.391E+02    0.540E+01
DAV:   3    -0.370595706781E+02    0.10095E+03   -0.28291E+02  5128   0.144E+02    0.275E+01
DAV:   4    -0.145001348778E+02    0.22559E+02   -0.65171E+01  5192   0.896E+01    0.526E+00
DAV:   5    -0.141875589857E+02    0.31258E+00   -0.42127E+00  5168   0.146E+01    0.524E+00
DAV:   6    -0.149757021449E+02   -0.78814E+00   -0.73082E+00  4520   0.326E+01    0.963E+00
DAV:   7    -0.146477982311E+02    0.32790E+00   -0.18877E-01  4684   0.557E+00    0.799E+00
DAV:   8    -0.141491155901E+02    0.49868E+00   -0.49996E+00  4952   0.249E+01    0.416E+00
DAV:   9    -0.140854763691E+02    0.63639E-01   -0.13483E-01  4364   0.233E+00    0.310E+00
DAV:  10    -0.140159008573E+02    0.69576E-01   -0.12320E-01  5068   0.309E+00    0.123E+00
DAV:  11    -0.140070804471E+02    0.88204E-02   -0.12086E-02  6052   0.848E-01    0.758E-01
DAV:  12    -0.140024033325E+02    0.46771E-02   -0.10356E-02  5324   0.972E-01    0.243E-01
DAV:  13    -0.140019489692E+02    0.45436E-03   -0.20586E-03  5636   0.428E-01    0.263E-02
DAV:  14    -0.140019509238E+02   -0.19546E-05   -0.10034E-04  5228   0.101E-01    0.213E-02
DAV:  15    -0.140019463635E+02    0.45603E-05   -0.10043E-05  5392   0.310E-02    0.572E-03
DAV:  16    -0.140019458780E+02    0.48559E-06   -0.26402E-06  5660   0.151E-02    0.227E-03
DAV:  17    -0.140019459448E+02   -0.66817E-07   -0.85617E-08  4612   0.175E-03    0.233E-03
DAV:  18    -0.140019459811E+02   -0.36337E-07   -0.27443E-07  5256   0.530E-03    0.320E-04
DAV:  19    -0.140019459711E+02    0.10039E-07   -0.54189E-09  2292   0.829E-04    0.340E-05
DAV:  20    -0.140019459688E+02    0.23138E-08   -0.61551E-10  2208   0.211E-04
   3 F= -.14001946E+02 E0= -.14002107E+02  d E =-.134806E+01  mag=    -0.0000
 curvature:  -0.31 expect dE=-0.699E-01 dE for cont linesearch -0.102E-03
 trial: gam= 0.05120 g(F)=  0.723E-01 g(S)=  0.155E+00 ort =-0.416E-01 (trialstep = 0.915E+00)
 search vector abs. value=  0.237E+00
 bond charge predicted
       N       E                     dE             d eps       ncg     rms          rms(c)
DAV:   1    -0.156045563005E+02   -0.16026E+01   -0.20761E+01  4496   0.440E+01    0.144E+01
DAV:   2    -0.219166283340E+02   -0.63121E+01   -0.77213E+01  4912   0.916E+01    0.205E+01
DAV:   3    -0.143879535358E+02    0.75287E+01   -0.14524E+01  5064   0.612E+01    0.435E+00
DAV:   4    -0.143256656169E+02    0.62288E-01   -0.33095E+00  5660   0.187E+01    0.479E+00
DAV:   5    -0.141647555021E+02    0.16091E+00   -0.15564E+00  4900   0.131E+01    0.179E+00
DAV:   6    -0.141348741851E+02    0.29881E-01   -0.76824E-02  5252   0.310E+00    0.325E-01
DAV:   7    -0.141348318845E+02    0.42301E-04   -0.19745E-03  4436   0.281E-01    0.310E-01
DAV:   8    -0.141341135590E+02    0.71833E-03   -0.16951E-03  4420   0.428E-01    0.159E-01
DAV:   9    -0.141337714908E+02    0.34207E-03   -0.96750E-04  5708   0.265E-01    0.210E-02
DAV:  10    -0.141337779097E+02   -0.64189E-05   -0.14683E-04  5992   0.101E-01    0.351E-02
DAV:  11    -0.141337665478E+02    0.11362E-04   -0.32123E-05  5392   0.573E-02    0.889E-03
DAV:  12    -0.141337656936E+02    0.85425E-06   -0.39235E-06  6112   0.173E-02    0.506E-04
DAV:  13    -0.141337657581E+02   -0.64504E-07   -0.16918E-07  4528   0.244E-03    0.181E-04
DAV:  14    -0.141337657809E+02   -0.22816E-07   -0.23475E-09  2524   0.392E-04    0.111E-04
DAV:  15    -0.141337657879E+02   -0.69858E-08   -0.50502E-10  2252   0.207E-04
   4 F= -.14133766E+02 E0= -.14133293E+02  d E =-.131820E+00  mag=    -0.0000
 trial-energy change:   -0.131820  1 .order   -0.128773   -0.205919   -0.051627
 step:   1.1806(harm=  1.2212)  dis= 0.03283  next Energy=   -14.141332 (dE=-0.139E+00)
 bond charge predicted
       N       E                     dE             d eps       ncg     rms          rms(c)
DAV:   1    -0.142656187623E+02   -0.13185E+00   -0.17393E+00  4532   0.138E+01    0.373E+00
DAV:   2    -0.147393390218E+02   -0.47372E+00   -0.47475E+00  4852   0.238E+01    0.715E+00
DAV:   3    -0.141465738159E+02    0.59277E+00   -0.17772E+00  4844   0.184E+01    0.577E-01
DAV:   4    -0.141436739600E+02    0.28999E-02   -0.34392E-02  4608   0.131E+00    0.420E-01
DAV:   5    -0.141423282996E+02    0.13457E-02   -0.70934E-03  4616   0.998E-01    0.699E-02
DAV:   6    -0.141422666738E+02    0.61626E-04   -0.24312E-04  4924   0.169E-01    0.169E-02
DAV:   7    -0.141422679560E+02   -0.12822E-05   -0.14874E-05  4852   0.359E-02    0.422E-03
DAV:   8    -0.141422684274E+02   -0.47138E-06   -0.17250E-06  5268   0.136E-02    0.456E-03
DAV:   9    -0.141422679750E+02    0.45238E-06   -0.93995E-07  4704   0.113E-02    0.513E-04
DAV:  10    -0.141422679278E+02    0.47229E-07   -0.22495E-08  3924   0.111E-03    0.338E-04
DAV:  11    -0.141422679227E+02    0.50795E-08   -0.20043E-09  2348   0.521E-04
   5 F= -.14142268E+02 E0= -.14141965E+02  d E =-.140322E+00  mag=     0.0000
 curvature:  -0.63 expect dE=-0.404E-02 dE for cont linesearch -0.129E-03
 ZBRENT: extrapolating
 opt :   1.2179  next Energy=   -14.142397 (dE=-0.140E+00)
 bond charge predicted
       N       E                     dE             d eps       ncg     rms          rms(c)
DAV:   1    -0.141447351194E+02   -0.24672E-02   -0.34642E-02  4544   0.198E+00    0.510E-01
DAV:   2    -0.141541347612E+02   -0.93996E-02   -0.77357E-02  4848   0.327E+00    0.115E+00
DAV:   3    -0.141425376835E+02    0.11597E-01   -0.43454E-02  4912   0.254E+00    0.124E-01
DAV:   4    -0.141423630301E+02    0.17465E-03   -0.56555E-04  4356   0.181E-01    0.311E-02
DAV:   5    -0.141423541037E+02    0.89263E-05   -0.31094E-05  5796   0.500E-02    0.710E-03
DAV:   6    -0.141423534043E+02    0.69945E-06   -0.15486E-06  4612   0.139E-02    0.217E-03
DAV:   7    -0.141423535220E+02   -0.11772E-06   -0.16429E-07  5376   0.367E-03    0.626E-04
DAV:   8    -0.141423534846E+02    0.37427E-07   -0.13596E-08  2664   0.128E-03    0.915E-05
DAV:   9    -0.141423534753E+02    0.93000E-08   -0.18382E-09  2284   0.331E-04
   6 F= -.14142353E+02 E0= -.14142136E+02  d E =-.140408E+00  mag=     0.0000
 curvature:  -0.64 expect dE=-0.476E-02 dE for cont linesearch -0.126E-05
 trial: gam= 0.07854 g(F)=  0.106E-02 g(S)=  0.644E-02 ort =-0.686E-03 (trialstep = 0.976E+00)
 search vector abs. value=  0.885E-02
 bond charge predicted
       N       E                     dE             d eps       ncg     rms          rms(c)
DAV:   1    -0.144350800551E+02   -0.29273E+00   -0.22585E+00  4428   0.212E+01    0.577E+00
DAV:   2    -0.159748037447E+02   -0.15397E+01   -0.14945E+01  4832   0.412E+01    0.155E+01
DAV:   3    -0.141576849212E+02    0.18171E+01   -0.11430E+01  4892   0.292E+01    0.146E+00
DAV:   4    -0.141474896718E+02    0.10195E-01   -0.74775E-02  4328   0.241E+00    0.522E-01
DAV:   5    -0.141448810189E+02    0.26087E-02   -0.46924E-03  6004   0.584E-01    0.110E-01
DAV:   6    -0.141447057724E+02    0.17525E-03   -0.20556E-04  4736   0.113E-01    0.124E-02
DAV:   7    -0.141447058958E+02   -0.12347E-06   -0.98697E-06  4944   0.273E-02    0.831E-03
DAV:   8    -0.141447059024E+02   -0.65270E-08   -0.16160E-06  4788   0.152E-02    0.217E-03
DAV:   9    -0.141447060784E+02   -0.17604E-06   -0.82412E-08  4812   0.254E-03    0.530E-04
DAV:  10    -0.141447061038E+02   -0.25365E-07   -0.58507E-09  2388   0.596E-04    0.182E-04
DAV:  11    -0.141447061013E+02    0.24984E-08   -0.13855E-09  2288   0.264E-04
   7 F= -.14144706E+02 E0= -.14144608E+02  d E =-.235263E-02  mag=     0.0000
 trial-energy change:   -0.002353  1 .order   -0.002380   -0.007264    0.002505
 step:   0.7223(harm=  0.7254)  dis= 0.00369  next Energy=   -14.145032 (dE=-0.268E-02)
 bond charge predicted
       N       E                     dE             d eps       ncg     rms          rms(c)
DAV:   1    -0.141649453455E+02   -0.20239E-01   -0.15137E-01  4424   0.546E+00    0.161E+00
DAV:   2    -0.142818156253E+02   -0.11687E+00   -0.92461E-01  4768   0.113E+01    0.361E+00
DAV:   3    -0.141452416593E+02    0.13657E+00   -0.44535E-01  4848   0.847E+00    0.160E-01
DAV:   4    -0.141451628296E+02    0.78830E-04   -0.32203E-03  4280   0.343E-01    0.122E-01
DAV:   5    -0.141450326284E+02    0.13020E-03   -0.25417E-04  5412   0.184E-01    0.109E-02
DAV:   6    -0.141450308313E+02    0.17972E-05   -0.77053E-06  4364   0.277E-02    0.495E-03
DAV:   7    -0.141450297483E+02    0.10830E-05   -0.84654E-07  5528   0.714E-03    0.147E-03
DAV:   8    -0.141450296286E+02    0.11967E-06   -0.11261E-07  5272   0.304E-03    0.208E-04
DAV:   9    -0.141450296096E+02    0.19067E-07   -0.53393E-09  2428   0.709E-04    0.153E-04
DAV:  10    -0.141450295966E+02    0.12925E-07   -0.18291E-09  2184   0.531E-04    0.865E-05
DAV:  11    -0.141450295973E+02   -0.63710E-09   -0.35120E-10  2136   0.233E-04
   8 F= -.14145030E+02 E0= -.14144909E+02  d E =-.267612E-02  mag=     0.0000
 curvature:  -0.43 expect dE=-0.149E-03 dE for cont linesearch -0.114E-07
 trial: gam= 0.04543 g(F)=  0.158E-03 g(S)=  0.187E-03 ort = 0.153E-04 (trialstep = 0.925E+00)
 search vector abs. value=  0.365E-03
 bond charge predicted
       N       E                     dE             d eps       ncg     rms          rms(c)
DAV:   1    -0.141459169421E+02   -0.88735E-03   -0.16008E-02  4320   0.119E+00    0.229E-01
DAV:   2    -0.141463619490E+02   -0.44501E-03   -0.64034E-03  4632   0.104E+00    0.346E-01
DAV:   3    -0.141453488325E+02    0.10131E-02   -0.45203E-03  4992   0.798E-01    0.928E-02
DAV:   4    -0.141452512826E+02    0.97550E-04   -0.15616E-04  5976   0.141E-01    0.185E-02
DAV:   5    -0.141452460949E+02    0.51877E-05   -0.10852E-05  5096   0.270E-02    0.385E-03
DAV:   6    -0.141452451395E+02    0.95535E-06   -0.97654E-07  4780   0.937E-03    0.119E-03
DAV:   7    -0.141452449180E+02    0.22148E-06   -0.62312E-08  4472   0.230E-03    0.257E-04
DAV:   8    -0.141452449115E+02    0.65711E-08   -0.45341E-09  2316   0.608E-04
   9 F= -.14145245E+02 E0= -.14145003E+02  d E =-.215314E-03  mag=     0.0000
 trial-energy change:   -0.000215  1 .order   -0.000216   -0.000320   -0.000111
 step:   1.4161(harm=  1.4161)  dis= 0.00193  next Energy=   -14.145275 (dE=-0.245E-03)
 bond charge predicted
       N       E                     dE             d eps       ncg     rms          rms(c)
DAV:   1    -0.141454655784E+02   -0.22066E-03   -0.45171E-03  4320   0.633E-01    0.121E-01
DAV:   2    -0.141455844426E+02   -0.11886E-03   -0.17550E-03  4624   0.547E-01    0.182E-01
DAV:   3    -0.141453070313E+02    0.27741E-03   -0.12522E-03  5016   0.419E-01    0.499E-02
DAV:   4    -0.141452785815E+02    0.28450E-04   -0.44525E-05  5992   0.763E-02    0.964E-03
DAV:   5    -0.141452770813E+02    0.15002E-05   -0.29556E-06  5088   0.139E-02    0.206E-03
DAV:   6    -0.141452766312E+02    0.45007E-06   -0.27248E-07  4776   0.500E-03    0.638E-04
DAV:   7    -0.141452765145E+02    0.11671E-06   -0.15595E-08  3120   0.121E-03    0.146E-04
DAV:   8    -0.141452765104E+02    0.41209E-08   -0.22345E-09  2200   0.524E-04
  10 F= -.14145277E+02 E0= -.14144971E+02  d E =-.246913E-03  mag=    -0.0000
 curvature:  -0.75 expect dE=-0.128E-04 dE for cont linesearch -0.117E-06
 trial: gam= 0.04438 g(F)=  0.631E-06 g(S)=  0.165E-04 ort = 0.757E-05 (trialstep = 0.102E+01)
 search vector abs. value=  0.185E-04
 bond charge predicted
       N       E                     dE             d eps       ncg     rms          rms(c)
DAV:   1    -0.141460630335E+02   -0.78652E-03   -0.61302E-03  4616   0.103E+00    0.324E-01
DAV:   2    -0.141517358147E+02   -0.56728E-02   -0.38862E-02  4920   0.234E+00    0.828E-01
DAV:   3    -0.141452944358E+02    0.64414E-02   -0.22687E-02  4864   0.177E+00    0.378E-02
DAV:   4    -0.141452822629E+02    0.12173E-04   -0.13784E-04  4408   0.826E-02    0.216E-02
DAV:   5    -0.141452800119E+02    0.22510E-05   -0.95158E-06  5272   0.315E-02    0.495E-03
DAV:   6    -0.141452800514E+02   -0.39493E-07   -0.51558E-07  5768   0.564E-03    0.115E-03
DAV:   7    -0.141452801550E+02   -0.10362E-06   -0.55436E-08  4596   0.196E-03    0.458E-04
DAV:   8    -0.141452801634E+02   -0.83401E-08   -0.82384E-09  2296   0.981E-04
  11 F= -.14145280E+02 E0= -.14144953E+02  d E =-.365299E-05  mag=     0.0000
 trial-energy change:   -0.000004  1 .order   -0.000005   -0.000018    0.000008
 step:   0.6347(harm=  0.7107)  dis= 0.00001  next Energy=   -14.145282 (dE=-0.522E-05)
 bond charge predicted
       N       E                     dE             d eps       ncg     rms          rms(c)
DAV:   1    -0.141453930213E+02   -0.11287E-03   -0.88391E-04  4616   0.392E-01    0.122E-01
DAV:   2    -0.141462236491E+02   -0.83063E-03   -0.54481E-03  4888   0.871E-01    0.329E-01
DAV:   3    -0.141452867419E+02    0.93691E-03   -0.31712E-03  4896   0.670E-01    0.178E-02
DAV:   4    -0.141452828483E+02    0.38936E-05   -0.18753E-05  4236   0.297E-02    0.766E-03
DAV:   5    -0.141452820770E+02    0.77126E-06   -0.10079E-06  5316   0.100E-02    0.100E-03
DAV:   6    -0.141452819770E+02    0.10002E-06   -0.24508E-08  3828   0.154E-03    0.467E-04
DAV:   7    -0.141452819417E+02    0.35289E-07   -0.37896E-09  2280   0.643E-04    0.903E-05
DAV:   8    -0.141452819349E+02    0.68803E-08   -0.76512E-10  2104   0.338E-04
  12 F= -.14145282E+02 E0= -.14144963E+02  d E =-.542448E-05  mag=    -0.0000
 curvature:  -0.35 expect dE=-0.528E-06 dE for cont linesearch -0.330E-07
 trial: gam= 0.03425 g(F)=  0.723E-07 g(S)=  0.142E-05 ort = 0.131E-05 (trialstep = 0.945E+00)
 search vector abs. value=  0.160E-05
 reached required accuracy - stopping structural energy minimisation
 writing wavefunctions
