   7   7   0   0
  0.1183299E+02  0.9786152E-09  0.9786152E-09  0.9786152E-09  0.5000000E-15
  1.000000000000000E-004
  CAR 
 unknown system                          
     24.51714154    -58.42001972  301      9.06409257      1.00000000
    -58.420  0.0000E+00  0.0000E+00  0.0000E+00  0.0000E+00
    -58.144  0.0000E+00  0.0000E+00  0.0000E+00  0.0000E+00
    -57.867  0.0000E+00  0.0000E+00  0.0000E+00  0.0000E+00
    -57.591  0.0000E+00  0.0000E+00  0.0000E+00  0.0000E+00
    -57.314  0.0000E+00  0.0000E+00  0.0000E+00  0.0000E+00
    -57.038  0.0000E+00  0.0000E+00  0.0000E+00  0.0000E+00
    -56.761  0.0000E+00  0.0000E+00  0.0000E+00  0.0000E+00
    -56.485  0.0000E+00  0.0000E+00  0.0000E+00  0.0000E+00
    -56.208  0.0000E+00  0.0000E+00  0.0000E+00  0.0000E+00
    -55.932  0.0000E+00  0.0000E+00  0.0000E+00  0.0000E+00
    -55.655  0.0000E+00  0.0000E+00  0.0000E+00  0.0000E+00
    -55.379  0.0000E+00  0.0000E+00  0.0000E+00  0.0000E+00
    -55.103  0.0000E+00  0.0000E+00  0.0000E+00  0.0000E+00
    -54.826  0.0000E+00  0.0000E+00  0.0000E+00  0.0000E+00
    -54.550  0.0000E+00  0.0000E+00  0.6000E+01  0.6000E+01
    -54.273  0.1597E+02  0.1606E+02  0.9980E+01  0.9980E+01
    -53.997  0.0000E+00  0.0000E+00  0.1200E+02  0.1200E+02
    -53.720  0.0000E+00  0.0000E+00  0.1200E+02  0.1200E+02
    -53.444  0.0000E+00  0.0000E+00  0.1200E+02  0.1200E+02
    -53.167  0.0000E+00  0.0000E+00  0.1200E+02  0.1200E+02
    -52.891  0.0000E+00  0.0000E+00  0.1200E+02  0.1200E+02
    -52.614  0.0000E+00  0.0000E+00  0.1200E+02  0.1200E+02
    -52.338  0.0000E+00  0.0000E+00  0.1200E+02  0.1200E+02
    -52.062  0.0000E+00  0.0000E+00  0.1200E+02  0.1200E+02
    -51.785  0.0000E+00  0.0000E+00  0.1200E+02  0.1200E+02
    -51.509  0.0000E+00  0.0000E+00  0.1200E+02  0.1200E+02
    -51.232  0.0000E+00  0.0000E+00  0.1200E+02  0.1200E+02
    -50.956  0.0000E+00  0.0000E+00  0.1200E+02  0.1200E+02
    -50.679  0.0000E+00  0.0000E+00  0.1200E+02  0.1200E+02
    -50.403  0.0000E+00  0.0000E+00  0.1200E+02  0.1200E+02
    -50.126  0.0000E+00  0.0000E+00  0.1200E+02  0.1200E+02
    -49.850  0.0000E+00  0.0000E+00  0.1200E+02  0.1200E+02
    -49.573  0.0000E+00  0.0000E+00  0.1200E+02  0.1200E+02
    -49.297  0.0000E+00  0.0000E+00  0.1200E+02  0.1200E+02
    -49.020  0.0000E+00  0.0000E+00  0.1200E+02  0.1200E+02
    -48.744  0.0000E+00  0.0000E+00  0.1200E+02  0.1200E+02
    -48.468  0.0000E+00  0.0000E+00  0.1200E+02  0.1200E+02
    -48.191  0.0000E+00  0.0000E+00  0.1200E+02  0.1200E+02
    -47.915  0.0000E+00  0.0000E+00  0.1200E+02  0.1200E+02
    -47.638  0.0000E+00  0.0000E+00  0.1200E+02  0.1200E+02
    -47.362  0.0000E+00  0.0000E+00  0.1200E+02  0.1200E+02
    -47.085  0.0000E+00  0.0000E+00  0.1200E+02  0.1200E+02
    -46.809  0.0000E+00  0.0000E+00  0.1200E+02  0.1200E+02
    -46.532  0.0000E+00  0.0000E+00  0.1200E+02  0.1200E+02
    -46.256  0.0000E+00  0.0000E+00  0.1200E+02  0.1200E+02
    -45.979  0.0000E+00  0.0000E+00  0.1200E+02  0.1200E+02
    -45.703  0.0000E+00  0.0000E+00  0.1200E+02  0.1200E+02
    -45.427  0.0000E+00  0.0000E+00  0.1200E+02  0.1200E+02
    -45.150  0.0000E+00  0.0000E+00  0.1200E+02  0.1200E+02
    -44.874  0.0000E+00  0.0000E+00  0.1200E+02  0.1200E+02
    -44.597  0.0000E+00  0.0000E+00  0.1200E+02  0.1200E+02
    -44.321  0.0000E+00  0.0000E+00  0.1200E+02  0.1200E+02
    -44.044  0.0000E+00  0.0000E+00  0.1200E+02  0.1200E+02
    -43.768  0.0000E+00  0.0000E+00  0.1200E+02  0.1200E+02
    -43.491  0.0000E+00  0.0000E+00  0.1200E+02  0.1200E+02
    -43.215  0.0000E+00  0.0000E+00  0.1200E+02  0.1200E+02
    -42.938  0.0000E+00  0.0000E+00  0.1200E+02  0.1200E+02
    -42.662  0.0000E+00  0.0000E+00  0.1200E+02  0.1200E+02
    -42.386  0.0000E+00  0.0000E+00  0.1200E+02  0.1200E+02
    -42.109  0.0000E+00  0.0000E+00  0.1200E+02  0.1200E+02
    -41.833  0.0000E+00  0.0000E+00  0.1200E+02  0.1200E+02
    -41.556  0.0000E+00  0.0000E+00  0.1200E+02  0.1200E+02
    -41.280  0.0000E+00  0.0000E+00  0.1200E+02  0.1200E+02
    -41.003  0.0000E+00  0.0000E+00  0.1200E+02  0.1200E+02
    -40.727  0.0000E+00  0.0000E+00  0.1200E+02  0.1200E+02
    -40.450  0.0000E+00  0.0000E+00  0.1200E+02  0.1200E+02
    -40.174  0.0000E+00  0.0000E+00  0.1200E+02  0.1200E+02
    -39.897  0.0000E+00  0.0000E+00  0.1200E+02  0.1200E+02
    -39.621  0.0000E+00  0.0000E+00  0.1200E+02  0.1200E+02
    -39.344  0.0000E+00  0.0000E+00  0.1200E+02  0.1200E+02
    -39.068  0.0000E+00  0.0000E+00  0.1200E+02  0.1200E+02
    -38.792  0.0000E+00  0.0000E+00  0.1200E+02  0.1200E+02
    -38.515  0.0000E+00  0.0000E+00  0.1200E+02  0.1200E+02
    -38.239  0.0000E+00  0.0000E+00  0.1200E+02  0.1200E+02
    -37.962  0.0000E+00  0.0000E+00  0.1200E+02  0.1200E+02
    -37.686  0.0000E+00  0.0000E+00  0.1200E+02  0.1200E+02
    -37.409  0.0000E+00  0.0000E+00  0.1200E+02  0.1200E+02
    -37.133  0.0000E+00  0.0000E+00  0.1200E+02  0.1200E+02
    -36.856  0.0000E+00  0.0000E+00  0.1200E+02  0.1200E+02
    -36.580  0.0000E+00  0.0000E+00  0.1200E+02  0.1200E+02
    -36.303  0.0000E+00  0.0000E+00  0.1200E+02  0.1200E+02
    -36.027  0.0000E+00  0.0000E+00  0.1200E+02  0.1200E+02
    -35.751  0.0000E+00  0.0000E+00  0.1200E+02  0.1200E+02
    -35.474  0.0000E+00  0.0000E+00  0.1200E+02  0.1200E+02
    -35.198  0.0000E+00  0.0000E+00  0.1200E+02  0.1200E+02
    -34.921  0.0000E+00  0.0000E+00  0.1200E+02  0.1200E+02
    -34.645  0.0000E+00  0.0000E+00  0.1200E+02  0.1200E+02
    -34.368  0.0000E+00  0.0000E+00  0.1200E+02  0.1200E+02
    -34.092  0.0000E+00  0.0000E+00  0.1200E+02  0.1200E+02
    -33.815  0.0000E+00  0.0000E+00  0.1200E+02  0.1200E+02
    -33.539  0.0000E+00  0.0000E+00  0.1200E+02  0.1200E+02
    -33.262  0.0000E+00  0.0000E+00  0.1200E+02  0.1200E+02
    -32.986  0.0000E+00  0.0000E+00  0.1200E+02  0.1200E+02
    -32.709  0.0000E+00  0.0000E+00  0.1200E+02  0.1200E+02
    -32.433  0.0000E+00  0.0000E+00  0.1200E+02  0.1200E+02
    -32.157  0.0000E+00  0.0000E+00  0.1200E+02  0.1200E+02
    -31.880  0.0000E+00  0.0000E+00  0.1200E+02  0.1200E+02
    -31.604  0.0000E+00  0.0000E+00  0.1200E+02  0.1200E+02
    -31.327  0.0000E+00  0.0000E+00  0.1200E+02  0.1200E+02
    -31.051  0.0000E+00  0.0000E+00  0.1200E+02  0.1200E+02
    -30.774  0.0000E+00  0.0000E+00  0.1200E+02  0.1200E+02
    -30.498  0.0000E+00  0.0000E+00  0.1200E+02  0.1200E+02
    -30.221  0.0000E+00  0.0000E+00  0.1200E+02  0.1200E+02
    -29.945  0.0000E+00  0.0000E+00  0.1200E+02  0.1200E+02
    -29.668  0.0000E+00  0.0000E+00  0.1200E+02  0.1200E+02
    -29.392  0.0000E+00  0.0000E+00  0.1200E+02  0.1200E+02
    -29.116  0.0000E+00  0.0000E+00  0.1200E+02  0.1200E+02
    -28.839  0.0000E+00  0.0000E+00  0.1200E+02  0.1200E+02
    -28.563  0.0000E+00  0.0000E+00  0.1200E+02  0.1200E+02
    -28.286  0.0000E+00  0.0000E+00  0.1200E+02  0.1200E+02
    -28.010  0.0000E+00  0.0000E+00  0.1200E+02  0.1200E+02
    -27.733  0.0000E+00  0.0000E+00  0.1200E+02  0.1200E+02
    -27.457  0.0000E+00  0.0000E+00  0.1200E+02  0.1200E+02
    -27.180  0.0000E+00  0.0000E+00  0.1200E+02  0.1200E+02
    -26.904  0.0000E+00  0.0000E+00  0.1200E+02  0.1200E+02
    -26.627  0.0000E+00  0.0000E+00  0.1200E+02  0.1200E+02
    -26.351  0.0000E+00  0.0000E+00  0.1200E+02  0.1200E+02
    -26.075  0.0000E+00  0.0000E+00  0.1200E+02  0.1200E+02
    -25.798  0.0000E+00  0.0000E+00  0.1200E+02  0.1200E+02
    -25.522  0.0000E+00  0.0000E+00  0.1200E+02  0.1200E+02
    -25.245  0.0000E+00  0.0000E+00  0.1200E+02  0.1200E+02
    -24.969  0.0000E+00  0.0000E+00  0.1200E+02  0.1200E+02
    -24.692  0.0000E+00  0.0000E+00  0.1200E+02  0.1200E+02
    -24.416  0.0000E+00  0.0000E+00  0.1200E+02  0.1200E+02
    -24.139  0.0000E+00  0.0000E+00  0.1200E+02  0.1200E+02
    -23.863  0.0000E+00  0.0000E+00  0.1200E+02  0.1200E+02
    -23.586  0.0000E+00  0.0000E+00  0.1200E+02  0.1200E+02
    -23.310  0.0000E+00  0.0000E+00  0.1200E+02  0.1200E+02
    -23.033  0.0000E+00  0.0000E+00  0.1200E+02  0.1200E+02
    -22.757  0.0000E+00  0.0000E+00  0.1200E+02  0.1200E+02
    -22.481  0.0000E+00  0.0000E+00  0.1200E+02  0.1200E+02
    -22.204  0.0000E+00  0.0000E+00  0.1200E+02  0.1200E+02
    -21.928  0.0000E+00  0.0000E+00  0.1200E+02  0.1200E+02
    -21.651  0.0000E+00  0.0000E+00  0.1200E+02  0.1200E+02
    -21.375  0.0000E+00  0.0000E+00  0.1200E+02  0.1200E+02
    -21.098  0.0000E+00  0.0000E+00  0.1200E+02  0.1200E+02
    -20.822  0.0000E+00  0.0000E+00  0.1200E+02  0.1200E+02
    -20.545  0.0000E+00  0.0000E+00  0.1200E+02  0.1200E+02
    -20.269  0.0000E+00  0.0000E+00  0.1200E+02  0.1200E+02
    -19.992  0.0000E+00  0.0000E+00  0.1200E+02  0.1200E+02
    -19.716  0.0000E+00  0.0000E+00  0.1200E+02  0.1200E+02
    -19.440  0.0000E+00  0.0000E+00  0.1200E+02  0.1200E+02
    -19.163  0.0000E+00  0.0000E+00  0.1200E+02  0.1200E+02
    -18.887  0.0000E+00  0.0000E+00  0.1200E+02  0.1200E+02
    -18.610  0.0000E+00  0.0000E+00  0.1200E+02  0.1200E+02
    -18.334  0.0000E+00  0.0000E+00  0.1200E+02  0.1200E+02
    -18.057  0.0000E+00  0.0000E+00  0.1200E+02  0.1200E+02
    -17.781  0.0000E+00  0.0000E+00  0.1200E+02  0.1200E+02
    -17.504  0.0000E+00  0.0000E+00  0.1200E+02  0.1200E+02
    -17.228  0.0000E+00  0.0000E+00  0.1200E+02  0.1200E+02
    -16.951  0.0000E+00  0.0000E+00  0.1200E+02  0.1200E+02
    -16.675  0.0000E+00  0.0000E+00  0.1200E+02  0.1200E+02
    -16.399  0.0000E+00  0.0000E+00  0.1200E+02  0.1200E+02
    -16.122  0.0000E+00  0.0000E+00  0.1200E+02  0.1200E+02
    -15.846  0.0000E+00  0.0000E+00  0.1200E+02  0.1200E+02
    -15.569  0.0000E+00  0.0000E+00  0.1200E+02  0.1200E+02
    -15.293  0.0000E+00  0.0000E+00  0.1200E+02  0.1200E+02
    -15.016  0.0000E+00  0.0000E+00  0.1200E+02  0.1200E+02
    -14.740  0.0000E+00  0.0000E+00  0.1200E+02  0.1200E+02
    -14.463  0.0000E+00  0.0000E+00  0.1200E+02  0.1200E+02
    -14.187  0.0000E+00  0.0000E+00  0.1200E+02  0.1200E+02
    -13.910  0.0000E+00  0.0000E+00  0.1200E+02  0.1200E+02
    -13.634  0.0000E+00  0.0000E+00  0.1200E+02  0.1200E+02
    -13.357  0.0000E+00  0.0000E+00  0.1200E+02  0.1200E+02
    -13.081  0.0000E+00  0.0000E+00  0.1200E+02  0.1200E+02
    -12.805  0.0000E+00  0.0000E+00  0.1200E+02  0.1200E+02
    -12.528  0.0000E+00  0.0000E+00  0.1200E+02  0.1200E+02
    -12.252  0.0000E+00  0.0000E+00  0.1200E+02  0.1200E+02
    -11.975  0.0000E+00  0.0000E+00  0.1200E+02  0.1200E+02
    -11.699  0.0000E+00  0.0000E+00  0.1200E+02  0.1200E+02
    -11.422  0.0000E+00  0.0000E+00  0.1200E+02  0.1200E+02
    -11.146  0.0000E+00  0.0000E+00  0.1200E+02  0.1200E+02
    -10.869  0.0000E+00  0.0000E+00  0.1200E+02  0.1200E+02
    -10.593  0.0000E+00  0.0000E+00  0.1200E+02  0.1200E+02
    -10.316  0.0000E+00  0.0000E+00  0.1200E+02  0.1200E+02
    -10.040  0.0000E+00  0.0000E+00  0.1200E+02  0.1200E+02
     -9.764  0.0000E+00  0.0000E+00  0.1200E+02  0.1200E+02
     -9.487  0.0000E+00  0.0000E+00  0.1200E+02  0.1200E+02
     -9.211  0.0000E+00  0.0000E+00  0.1200E+02  0.1200E+02
     -8.934  0.0000E+00  0.0000E+00  0.1200E+02  0.1200E+02
     -8.658  0.0000E+00  0.0000E+00  0.1200E+02  0.1200E+02
     -8.381  0.0000E+00  0.0000E+00  0.1200E+02  0.1200E+02
     -8.105  0.0000E+00  0.0000E+00  0.1200E+02  0.1200E+02
     -7.828  0.0000E+00  0.0000E+00  0.1200E+02  0.1200E+02
     -7.552  0.0000E+00  0.0000E+00  0.1200E+02  0.1200E+02
     -7.275  0.0000E+00  0.0000E+00  0.1200E+02  0.1200E+02
     -6.999  0.0000E+00  0.0000E+00  0.1200E+02  0.1200E+02
     -6.723  0.0000E+00  0.0000E+00  0.1200E+02  0.1200E+02
     -6.446  0.0000E+00  0.0000E+00  0.1200E+02  0.1200E+02
     -6.170  0.0000E+00  0.0000E+00  0.1200E+02  0.1200E+02
     -5.893  0.0000E+00  0.0000E+00  0.1200E+02  0.1200E+02
     -5.617  0.0000E+00  0.0000E+00  0.1200E+02  0.1200E+02
     -5.340  0.0000E+00  0.0000E+00  0.1200E+02  0.1200E+02
     -5.064  0.0000E+00  0.0000E+00  0.1200E+02  0.1200E+02
     -4.787  0.0000E+00  0.0000E+00  0.1200E+02  0.1200E+02
     -4.511  0.0000E+00  0.0000E+00  0.1200E+02  0.1200E+02
     -4.234  0.0000E+00  0.0000E+00  0.1200E+02  0.1200E+02
     -3.958  0.0000E+00  0.0000E+00  0.1200E+02  0.1200E+02
     -3.681  0.0000E+00  0.0000E+00  0.1200E+02  0.1200E+02
     -3.405  0.0000E+00  0.0000E+00  0.1200E+02  0.1200E+02
     -3.129  0.0000E+00  0.0000E+00  0.1200E+02  0.1200E+02
     -2.852  0.0000E+00  0.0000E+00  0.1200E+02  0.1200E+02
     -2.576  0.0000E+00  0.0000E+00  0.1200E+02  0.1200E+02
     -2.299  0.0000E+00  0.0000E+00  0.1200E+02  0.1200E+02
     -2.023  0.0000E+00  0.0000E+00  0.1200E+02  0.1200E+02
     -1.746  0.2242E-01  0.2242E-01  0.1200E+02  0.1200E+02
     -1.470  0.1431E+00  0.1431E+00  0.1202E+02  0.1202E+02
     -1.193  0.2147E+00  0.2147E+00  0.1208E+02  0.1208E+02
     -0.917  0.2107E+00  0.2107E+00  0.1213E+02  0.1213E+02
     -0.640  0.2748E+00  0.2748E+00  0.1220E+02  0.1220E+02
     -0.364  0.3515E+00  0.3515E+00  0.1229E+02  0.1229E+02
     -0.088  0.4013E+00  0.4013E+00  0.1239E+02  0.1239E+02
      0.189  0.4004E+00  0.4004E+00  0.1250E+02  0.1250E+02
      0.465  0.4379E+00  0.4379E+00  0.1262E+02  0.1262E+02
      0.742  0.5140E+00  0.5140E+00  0.1275E+02  0.1275E+02
      1.018  0.5625E+00  0.5625E+00  0.1290E+02  0.1290E+02
      1.295  0.6285E+00  0.6285E+00  0.1306E+02  0.1306E+02
      1.571  0.7109E+00  0.7109E+00  0.1324E+02  0.1324E+02
      1.848  0.7225E+00  0.7225E+00  0.1344E+02  0.1344E+02
      2.124  0.7777E+00  0.7777E+00  0.1365E+02  0.1365E+02
      2.401  0.8903E+00  0.8903E+00  0.1388E+02  0.1388E+02
      2.677  0.8949E+00  0.8949E+00  0.1412E+02  0.1412E+02
      2.953  0.8135E+00  0.8135E+00  0.1436E+02  0.1436E+02
      3.230  0.9057E+00  0.9057E+00  0.1460E+02  0.1460E+02
      3.506  0.9149E+00  0.9149E+00  0.1485E+02  0.1485E+02
      3.783  0.1008E+01  0.1008E+01  0.1511E+02  0.1511E+02
      4.059  0.1173E+01  0.1173E+01  0.1541E+02  0.1541E+02
      4.336  0.1214E+01  0.1214E+01  0.1574E+02  0.1574E+02
      4.612  0.1522E+01  0.1522E+01  0.1612E+02  0.1612E+02
      4.889  0.2037E+01  0.2037E+01  0.1664E+02  0.1664E+02
      5.165  0.2119E+01  0.2119E+01  0.1725E+02  0.1725E+02
      5.442  0.3261E+01  0.3261E+01  0.1797E+02  0.1797E+02
      5.718  0.3630E+01  0.3630E+01  0.1896E+02  0.1896E+02
      5.995  0.7092E+01  0.7092E+01  0.2017E+02  0.2017E+02
      6.271  0.6865E+01  0.6865E+01  0.2192E+02  0.2192E+02
      6.547  0.5624E+01  0.5624E+01  0.2358E+02  0.2358E+02
      6.824  0.5354E+01  0.5355E+01  0.2500E+02  0.2500E+02
      7.100  0.7840E+01  0.7841E+01  0.2691E+02  0.2691E+02
      7.377  0.8131E+01  0.8131E+01  0.2976E+02  0.2976E+02
      7.653  0.4376E+01  0.4376E+01  0.3164E+02  0.3164E+02
      7.930  0.3325E+01  0.3325E+01  0.3274E+02  0.3274E+02
      8.206  0.6281E+01  0.6281E+01  0.3422E+02  0.3422E+02
      8.483  0.3059E+01  0.3059E+01  0.3516E+02  0.3516E+02
      8.759  0.1657E+01  0.1657E+01  0.3597E+02  0.3597E+02
      9.036  0.1738E+01  0.1738E+01  0.3645E+02  0.3645E+02
      9.312  0.1635E+01  0.1635E+01  0.3691E+02  0.3691E+02
      9.588  0.1485E+01  0.1485E+01  0.3734E+02  0.3734E+02
      9.865  0.1215E+01  0.1215E+01  0.3769E+02  0.3769E+02
     10.141  0.1041E+01  0.1041E+01  0.3800E+02  0.3800E+02
     10.418  0.9438E+00  0.9438E+00  0.3829E+02  0.3829E+02
     10.694  0.6770E+00  0.6770E+00  0.3851E+02  0.3851E+02
     10.971  0.4571E+00  0.4571E+00  0.3866E+02  0.3866E+02
     11.247  0.4626E+00  0.4626E+00  0.3879E+02  0.3879E+02
     11.524  0.1107E+01  0.1107E+01  0.3902E+02  0.3902E+02
     11.800  0.9805E+00  0.9805E+00  0.3931E+02  0.3931E+02
     12.077  0.1242E+01  0.1242E+01  0.3960E+02  0.3960E+02
     12.353  0.1675E+01  0.1675E+01  0.4001E+02  0.4001E+02
     12.629  0.1318E+01  0.1318E+01  0.4043E+02  0.4043E+02
     12.906  0.1238E+01  0.1238E+01  0.4077E+02  0.4077E+02
     13.182  0.1299E+01  0.1299E+01  0.4113E+02  0.4113E+02
     13.459  0.1405E+01  0.1405E+01  0.4151E+02  0.4151E+02
     13.735  0.1191E+01  0.1191E+01  0.4185E+02  0.4185E+02
     14.012  0.1176E+01  0.1176E+01  0.4218E+02  0.4218E+02
     14.288  0.1360E+01  0.1360E+01  0.4253E+02  0.4253E+02
     14.565  0.1455E+01  0.1455E+01  0.4293E+02  0.4293E+02
     14.841  0.1361E+01  0.1361E+01  0.4331E+02  0.4331E+02
     15.118  0.1314E+01  0.1314E+01  0.4368E+02  0.4368E+02
     15.394  0.1301E+01  0.1301E+01  0.4405E+02  0.4405E+02
     15.671  0.1311E+01  0.1311E+01  0.4440E+02  0.4440E+02
     15.947  0.1232E+01  0.1232E+01  0.4476E+02  0.4476E+02
     16.223  0.1194E+01  0.1194E+01  0.4509E+02  0.4509E+02
     16.500  0.1152E+01  0.1152E+01  0.4542E+02  0.4542E+02
     16.776  0.1269E+01  0.1269E+01  0.4574E+02  0.4574E+02
     17.053  0.1115E+01  0.1115E+01  0.4607E+02  0.4607E+02
     17.329  0.1114E+01  0.1114E+01  0.4638E+02  0.4638E+02
     17.606  0.1101E+01  0.1101E+01  0.4667E+02  0.4667E+02
     17.882  0.1037E+01  0.1037E+01  0.4698E+02  0.4698E+02
     18.159  0.8583E+00  0.8583E+00  0.4724E+02  0.4724E+02
     18.435  0.6625E+00  0.6625E+00  0.4745E+02  0.4745E+02
     18.712  0.4276E+00  0.4276E+00  0.4760E+02  0.4760E+02
     18.988  0.3681E+00  0.3681E+00  0.4771E+02  0.4771E+02
     19.264  0.3142E+00  0.3142E+00  0.4780E+02  0.4780E+02
     19.541  0.2560E+00  0.2560E+00  0.4788E+02  0.4788E+02
     19.817  0.1639E+00  0.1639E+00  0.4794E+02  0.4794E+02
     20.094  0.9178E-01  0.9178E-01  0.4797E+02  0.4797E+02
     20.370  0.4986E-01  0.4986E-01  0.4799E+02  0.4799E+02
     20.647  0.1004E-01  0.1004E-01  0.4800E+02  0.4800E+02
     20.923  0.0000E+00  0.0000E+00  0.4800E+02  0.4800E+02
     21.200  0.0000E+00  0.0000E+00  0.4800E+02  0.4800E+02
     21.476  0.0000E+00  0.0000E+00  0.4800E+02  0.4800E+02
     21.753  0.0000E+00  0.0000E+00  0.4800E+02  0.4800E+02
     22.029  0.0000E+00  0.0000E+00  0.4800E+02  0.4800E+02
     22.305  0.0000E+00  0.0000E+00  0.4800E+02  0.4800E+02
     22.582  0.0000E+00  0.0000E+00  0.4800E+02  0.4800E+02
     22.858  0.0000E+00  0.0000E+00  0.4800E+02  0.4800E+02
     23.135  0.0000E+00  0.0000E+00  0.4800E+02  0.4800E+02
     23.411  0.0000E+00  0.0000E+00  0.4800E+02  0.4800E+02
     23.688  0.0000E+00  0.0000E+00  0.4800E+02  0.4800E+02
     23.964  0.0000E+00  0.0000E+00  0.4800E+02  0.4800E+02
     24.241  0.0000E+00  0.0000E+00  0.4800E+02  0.4800E+02
     24.517  0.0000E+00  0.0000E+00  0.4800E+02  0.4800E+02
