       N       E                     dE             d eps       ncg     rms          rms(c)
DAV:   1     0.862943222010E+03    0.86294E+03   -0.42941E+04 10576   0.177E+03
DAV:   2     0.139751634426E+02   -0.84897E+03   -0.81351E+03  9144   0.563E+02
DAV:   3    -0.409073045187E+02   -0.54882E+02   -0.51848E+02 10344   0.163E+02
DAV:   4    -0.425526004264E+02   -0.16453E+01   -0.16389E+01  9904   0.270E+01
DAV:   5    -0.425966638032E+02   -0.44063E-01   -0.44058E-01 10728   0.445E+00    0.267E+01
DAV:   6    -0.528571663159E+02   -0.10261E+02   -0.13837E+02 10200   0.129E+02    0.343E+01
DAV:   7    -0.368900070716E+02    0.15967E+02   -0.43807E+01 10368   0.835E+01    0.640E+00
DAV:   8    -0.374596536949E+02   -0.56965E+00   -0.60322E+00 11120   0.281E+01    0.804E+00
DAV:   9    -0.373031472614E+02    0.15651E+00   -0.33936E+00 10816   0.266E+01    0.499E+00
DAV:  10    -0.372076669158E+02    0.95480E-01   -0.11934E+00 10720   0.114E+01    0.196E+00
DAV:  11    -0.372163200506E+02   -0.86531E-02   -0.82440E-02  9976   0.252E+00    0.145E+00
DAV:  12    -0.372031478523E+02    0.13172E-01   -0.59837E-02 12904   0.276E+00    0.232E-01
DAV:  13    -0.372037594216E+02   -0.61157E-03   -0.78434E-03  9776   0.693E-01    0.201E-01
DAV:  14    -0.372034252745E+02    0.33415E-03   -0.11032E-03 12192   0.361E-01    0.398E-02
DAV:  15    -0.372034386209E+02   -0.13346E-04   -0.15238E-04  9864   0.129E-01    0.226E-02
DAV:  16    -0.372034392443E+02   -0.62337E-06   -0.11317E-05 11808   0.383E-02    0.476E-03
DAV:  17    -0.372034395423E+02   -0.29804E-06   -0.15622E-06 11688   0.115E-02    0.562E-03
DAV:  18    -0.372034394616E+02    0.80690E-07   -0.52538E-07 10872   0.951E-03    0.636E-04
DAV:  19    -0.372034394510E+02    0.10679E-07   -0.48296E-08  8808   0.154E-03    0.425E-04
DAV:  20    -0.372034394368E+02    0.14123E-07   -0.39069E-09  5528   0.670E-04    0.247E-04
DAV:  21    -0.372034394259E+02    0.10890E-07   -0.24289E-09  5296   0.556E-04    0.116E-04
DAV:  22    -0.372034394211E+02    0.48331E-08   -0.76174E-10  5176   0.281E-04
   1 F= -.37203439E+02 E0= -.37202948E+02  d E =-.372034E+02  mag=     0.0000
       N       E                     dE             d eps       ncg     rms          rms(c)
DAV:   1    -0.139918714243E+03   -0.10272E+03   -0.12170E+03  8960   0.433E+02    0.810E+01
DAV:   2    -0.898296375541E+02    0.50089E+02   -0.78689E+02 10360   0.244E+02    0.628E+01
DAV:   3    -0.519692065592E+02    0.37860E+02   -0.35994E+02 10480   0.175E+02    0.344E+01
DAV:   4    -0.422177582139E+02    0.97514E+01   -0.48987E+01 10296   0.722E+01    0.198E+01
DAV:   5    -0.383726703833E+02    0.38451E+01   -0.13393E+01 10680   0.444E+01    0.637E+00
DAV:   6    -0.381893730621E+02    0.18330E+00   -0.68814E+00 11184   0.285E+01    0.701E+00
DAV:   7    -0.377420953382E+02    0.44728E+00   -0.96618E-01 10880   0.119E+01    0.200E+00
DAV:   8    -0.377217277823E+02    0.20368E-01   -0.26740E-01 11768   0.429E+00    0.122E+00
DAV:   9    -0.377130799102E+02    0.86479E-02   -0.58036E-02 11760   0.234E+00    0.831E-01
DAV:  10    -0.377103592185E+02    0.27207E-02   -0.13019E-02  9992   0.124E+00    0.339E-01
DAV:  11    -0.377098443511E+02    0.51487E-03   -0.29303E-03 10104   0.528E-01    0.276E-01
DAV:  12    -0.377095074947E+02    0.33686E-03   -0.22636E-03 12136   0.530E-01    0.891E-02
DAV:  13    -0.377095120834E+02   -0.45887E-05   -0.21370E-04  9568   0.109E-01    0.819E-02
DAV:  14    -0.377094719629E+02    0.40120E-04   -0.16714E-04 11656   0.146E-01    0.153E-02
DAV:  15    -0.377094721426E+02   -0.17967E-06   -0.16809E-05  9688   0.396E-02    0.405E-03
DAV:  16    -0.377094722348E+02   -0.92243E-07   -0.14404E-06 10680   0.112E-02    0.337E-03
DAV:  17    -0.377094721511E+02    0.83706E-07   -0.41145E-07 11320   0.704E-03    0.344E-03
DAV:  18    -0.377094720465E+02    0.10458E-06   -0.27919E-07  9848   0.576E-03    0.309E-04
DAV:  19    -0.377094720437E+02    0.28103E-08   -0.18672E-08  6256   0.945E-04
   2 F= -.37709472E+02 E0= -.37708992E+02  d E =-.506033E+00  mag=     0.0000
       N       E                     dE             d eps       ncg     rms          rms(c)
DAV:   1    -0.572873821494E+02   -0.19578E+02   -0.18211E+02  9632   0.141E+02    0.459E+01
DAV:   2    -0.804678277444E+02   -0.23180E+02   -0.35908E+02  9696   0.207E+02    0.478E+01
DAV:   3    -0.386065947534E+02    0.41861E+02   -0.11559E+02  9856   0.117E+02    0.663E+00
DAV:   4    -0.381351034898E+02    0.47149E+00   -0.63399E+00 10864   0.190E+01    0.504E+00
DAV:   5    -0.386159124141E+02   -0.48081E+00   -0.50300E+00 10608   0.238E+01    0.944E+00
DAV:   6    -0.379391189491E+02    0.67679E+00   -0.25752E+00 10976   0.186E+01    0.136E+00
DAV:   7    -0.379299176573E+02    0.92013E-02   -0.20103E-01  9856   0.333E+00    0.507E-01
DAV:   8    -0.379293461464E+02    0.57151E-03   -0.11662E-02 10656   0.105E+00    0.241E-01
DAV:   9    -0.379287129602E+02    0.63319E-03   -0.28175E-03 11280   0.465E-01    0.109E-01
DAV:  10    -0.379286445366E+02    0.68424E-04   -0.33516E-04 10496   0.206E-01    0.182E-02
DAV:  11    -0.379286398172E+02    0.47195E-05   -0.31359E-05 10144   0.533E-02    0.114E-02
DAV:  12    -0.379286379151E+02    0.19021E-05   -0.45170E-06 11016   0.219E-02    0.308E-03
DAV:  13    -0.379286376364E+02    0.27866E-06   -0.68032E-07 10768   0.875E-03    0.205E-03
DAV:  14    -0.379286376573E+02   -0.20895E-07   -0.11383E-07  9616   0.391E-03    0.288E-04
DAV:  15    -0.379286376592E+02   -0.18972E-08   -0.17100E-08  5672   0.117E-03
   3 F= -.37928638E+02 E0= -.37928521E+02  d E =-.725198E+00  mag=     0.0000
       N       E                     dE             d eps       ncg     rms          rms(c)
DAV:   1    -0.400011258266E+02   -0.20725E+01   -0.46695E+01 10904   0.794E+01    0.139E+01
DAV:   2    -0.409139294556E+02   -0.91280E+00   -0.22785E+01  9920   0.508E+01    0.148E+01
DAV:   3    -0.384082927952E+02    0.25056E+01   -0.99475E+00  9808   0.369E+01    0.513E+00
DAV:   4    -0.390741090297E+02   -0.66582E+00   -0.59100E+00 11312   0.334E+01    0.115E+01
DAV:   5    -0.381298118227E+02    0.94430E+00   -0.29236E+00 11128   0.186E+01    0.805E-01
DAV:   6    -0.381357068928E+02   -0.58951E-02   -0.15329E-01  9768   0.289E+00    0.358E-01
DAV:   7    -0.381352799582E+02    0.42693E-03   -0.77035E-03 10768   0.960E-01    0.135E-01
DAV:   8    -0.381353603895E+02   -0.80431E-04   -0.81175E-04 10816   0.240E-01    0.367E-02
DAV:   9    -0.381353517624E+02    0.86271E-05   -0.16965E-04 11368   0.113E-01    0.258E-02
DAV:  10    -0.381353477220E+02    0.40404E-05   -0.35357E-05 10560   0.658E-02    0.696E-03
DAV:  11    -0.381353471835E+02    0.53854E-06   -0.34175E-06 10416   0.189E-02    0.100E-03
DAV:  12    -0.381353470959E+02    0.87590E-07   -0.19880E-07  9320   0.343E-03    0.491E-04
DAV:  13    -0.381353470425E+02    0.53336E-07   -0.17186E-08  6400   0.119E-03    0.121E-04
DAV:  14    -0.381353470436E+02   -0.10295E-08   -0.30364E-09  5128   0.480E-04
   4 F= -.38135347E+02 E0= -.38135786E+02  d E =-.206709E+00  mag=     0.0000
       N       E                     dE             d eps       ncg     rms          rms(c)
DAV:   1    -0.412311425665E+02   -0.30958E+01   -0.73442E+01 10736   0.982E+01    0.175E+01
DAV:   2    -0.425047332088E+02   -0.12736E+01   -0.36331E+01  9840   0.662E+01    0.179E+01
DAV:   3    -0.386249303202E+02    0.38798E+01   -0.14448E+01  9984   0.488E+01    0.676E+00
DAV:   4    -0.396538026511E+02   -0.10289E+01   -0.11273E+01 10992   0.381E+01    0.142E+01
DAV:   5    -0.382021325197E+02    0.14517E+01   -0.52616E+00 11168   0.215E+01    0.116E+00
DAV:   6    -0.382109714062E+02   -0.88389E-02   -0.24534E-01  9584   0.362E+00    0.455E-01
DAV:   7    -0.382103493113E+02    0.62209E-03   -0.15309E-02 10768   0.137E+00    0.284E-01
DAV:   8    -0.382102281298E+02    0.12118E-03   -0.35319E-03 12048   0.587E-01    0.932E-02
DAV:   9    -0.382102316781E+02   -0.35483E-05   -0.14669E-03 12288   0.318E-01    0.103E-01
DAV:  10    -0.382101693360E+02    0.62342E-04   -0.44317E-04 11152   0.210E-01    0.208E-02
DAV:  11    -0.382101667182E+02    0.26178E-05   -0.33097E-05 10112   0.553E-02    0.720E-03
DAV:  12    -0.382101663054E+02    0.41281E-06   -0.21208E-06 10488   0.110E-02    0.310E-03
DAV:  13    -0.382101661389E+02    0.16645E-06   -0.35883E-07 11784   0.457E-03    0.357E-04
DAV:  14    -0.382101661009E+02    0.38071E-07   -0.46177E-08  8616   0.175E-03    0.204E-04
DAV:  15    -0.382101660913E+02    0.95424E-08   -0.21200E-09  5184   0.500E-04
   5 F= -.38210166E+02 E0= -.38209427E+02  d E =-.281528E+00  mag=    -0.0000
       N       E                     dE             d eps       ncg     rms          rms(c)
DAV:   1    -0.387570392320E+02   -0.54687E+00   -0.12345E+01 11136   0.508E+01    0.740E+00
DAV:   2    -0.391551183315E+02   -0.39808E+00   -0.86788E+00  9936   0.317E+01    0.876E+00
DAV:   3    -0.383133541121E+02    0.84176E+00   -0.33142E+00  9856   0.192E+01    0.269E+00
DAV:   4    -0.384445713525E+02   -0.13122E+00   -0.16918E+00 11632   0.154E+01    0.507E+00
DAV:   5    -0.382381597200E+02    0.20641E+00   -0.61652E-01 11248   0.101E+01    0.521E-01
DAV:   6    -0.382390497849E+02   -0.89006E-03   -0.41124E-02 10416   0.147E+00    0.161E-01
DAV:   7    -0.382391300841E+02   -0.80299E-04   -0.37070E-03 10656   0.667E-01    0.229E-01
DAV:   8    -0.382388738367E+02    0.25625E-03   -0.16709E-03 11600   0.445E-01    0.611E-02
DAV:   9    -0.382388433750E+02    0.30462E-04   -0.29231E-04 10416   0.120E-01    0.187E-02
DAV:  10    -0.382388450070E+02   -0.16320E-05   -0.20938E-05  9552   0.367E-02    0.170E-02
DAV:  11    -0.382388434090E+02    0.15980E-05   -0.73086E-06 11216   0.274E-02    0.112E-03
DAV:  12    -0.382388435254E+02   -0.11636E-06   -0.49940E-07  9504   0.540E-03    0.679E-04
DAV:  13    -0.382388435461E+02   -0.20673E-07   -0.44912E-08  7904   0.223E-03    0.489E-04
DAV:  14    -0.382388435456E+02    0.50386E-09   -0.86831E-09  5008   0.101E-03
   6 F= -.38238844E+02 E0= -.38238328E+02  d E =-.286775E-01  mag=     0.0000
       N       E                     dE             d eps       ncg     rms          rms(c)
DAV:   1    -0.385254390563E+02   -0.28660E+00   -0.68581E+00 11104   0.379E+01    0.546E+00
DAV:   2    -0.387514403815E+02   -0.22600E+00   -0.46754E+00  9888   0.233E+01    0.656E+00
DAV:   3    -0.383277611026E+02    0.42368E+00   -0.23042E+00 10064   0.151E+01    0.358E+00
DAV:   4    -0.383138602201E+02    0.13901E-01   -0.13261E+00 10784   0.117E+01    0.276E+00
DAV:   5    -0.382481911631E+02    0.65669E-01   -0.16485E-01 11568   0.480E+00    0.503E-01
DAV:   6    -0.382461744719E+02    0.20167E-02   -0.14476E-02 11360   0.111E+00    0.175E-01
DAV:   7    -0.382460201575E+02    0.15431E-03   -0.10930E-03 10528   0.250E-01    0.102E-01
DAV:   8    -0.382459647203E+02    0.55437E-04   -0.36604E-04 12448   0.211E-01    0.381E-02
DAV:   9    -0.382459603119E+02    0.44084E-05   -0.83402E-05 10640   0.939E-02    0.809E-03
DAV:  10    -0.382459606890E+02   -0.37708E-06   -0.66772E-06 12000   0.237E-02    0.544E-03
DAV:  11    -0.382459604513E+02    0.23771E-06   -0.17421E-06 10304   0.172E-02    0.102E-03
DAV:  12    -0.382459604689E+02   -0.17584E-07   -0.13183E-07  9040   0.385E-03    0.452E-04
DAV:  13    -0.382459604895E+02   -0.20636E-07   -0.87983E-09  4960   0.106E-03    0.794E-05
DAV:  14    -0.382459604946E+02   -0.51241E-08   -0.13760E-09  4912   0.313E-04
   7 F= -.38245960E+02 E0= -.38245937E+02  d E =-.357944E-01  mag=    -0.0000
       N       E                     dE             d eps       ncg     rms          rms(c)
DAV:   1    -0.384449930391E+02   -0.19903E+00   -0.35937E+00 10720   0.246E+01    0.447E+00
DAV:   2    -0.386601647896E+02   -0.21517E+00   -0.33605E+00 10128   0.185E+01    0.581E+00
DAV:   3    -0.383584768993E+02    0.30169E+00   -0.20960E+00 10544   0.183E+01    0.380E+00
DAV:   4    -0.382812747462E+02    0.77202E-01   -0.73608E-01 10552   0.105E+01    0.148E+00
DAV:   5    -0.382638577458E+02    0.17417E-01   -0.10030E-01 11088   0.298E+00    0.444E-01
DAV:   6    -0.382623984339E+02    0.14593E-02   -0.10003E-02 10024   0.859E-01    0.104E-01
DAV:   7    -0.382623329442E+02    0.65490E-04   -0.77222E-04 10224   0.258E-01    0.374E-02
DAV:   8    -0.382623331749E+02   -0.23074E-06   -0.69275E-05 11736   0.713E-02    0.114E-02
DAV:   9    -0.382623325497E+02    0.62524E-06   -0.78221E-06 10832   0.265E-02    0.368E-03
DAV:  10    -0.382623323700E+02    0.17968E-06   -0.49632E-07 10344   0.727E-03    0.179E-03
DAV:  11    -0.382623323017E+02    0.68267E-07   -0.12975E-07  9488   0.352E-03    0.253E-04
DAV:  12    -0.382623322946E+02    0.70759E-08   -0.83448E-09  5344   0.824E-04
   8 F= -.38262332E+02 E0= -.38262677E+02  d E =-.163718E-01  mag=    -0.0000
       N       E                     dE             d eps       ncg     rms          rms(c)
DAV:   1    -0.385946468598E+02   -0.33231E+00   -0.62702E+00 10728   0.324E+01    0.587E+00
DAV:   2    -0.389644122525E+02   -0.36977E+00   -0.60899E+00 10240   0.247E+01    0.751E+00
DAV:   3    -0.384222811821E+02    0.54213E+00   -0.32606E+00 10528   0.243E+01    0.486E+00
DAV:   4    -0.383107968440E+02    0.11148E+00   -0.12243E+00 10560   0.132E+01    0.208E+00
DAV:   5    -0.382765853004E+02    0.34212E-01   -0.20272E-01 11392   0.436E+00    0.597E-01
DAV:   6    -0.382740785140E+02    0.25068E-02   -0.20060E-02  9936   0.123E+00    0.143E-01
DAV:   7    -0.382739447413E+02    0.13377E-03   -0.14274E-03  9856   0.355E-01    0.557E-02
DAV:   8    -0.382739424941E+02    0.22473E-05   -0.17135E-04 12416   0.113E-01    0.206E-02
DAV:   9    -0.382739403723E+02    0.21218E-05   -0.29714E-05 10704   0.506E-02    0.539E-03
DAV:  10    -0.382739401219E+02    0.25042E-06   -0.13411E-06  9840   0.938E-03    0.311E-03
DAV:  11    -0.382739399803E+02    0.14160E-06   -0.26116E-07 11696   0.483E-03    0.500E-04
DAV:  12    -0.382739399521E+02    0.28176E-07   -0.40261E-08  8208   0.149E-03    0.209E-04
DAV:  13    -0.382739399554E+02   -0.32633E-08   -0.34677E-09  4976   0.616E-04
   9 F= -.38273940E+02 E0= -.38274110E+02  d E =-.279795E-01  mag=    -0.0000
       N       E                     dE             d eps       ncg     rms          rms(c)
DAV:   1    -0.383427392910E+02   -0.68799E-01   -0.12979E+00 10672   0.147E+01    0.274E+00
DAV:   2    -0.384657696714E+02   -0.12303E+00   -0.15514E+00 10400   0.123E+01    0.421E+00
DAV:   3    -0.383281056645E+02    0.13766E+00   -0.11778E+00 10688   0.149E+01    0.279E+00
DAV:   4    -0.382808388631E+02    0.47267E-01   -0.30919E-01 11136   0.694E+00    0.744E-01
DAV:   5    -0.382758580415E+02    0.49808E-02   -0.30222E-02 10496   0.163E+00    0.287E-01
DAV:   6    -0.382751740883E+02    0.68395E-03   -0.38084E-03 10336   0.541E-01    0.579E-02
DAV:   7    -0.382751573133E+02    0.16775E-04   -0.25219E-04  9920   0.145E-01    0.253E-02
DAV:   8    -0.382751553799E+02    0.19334E-05   -0.32262E-05 12264   0.487E-02    0.852E-03
DAV:   9    -0.382751548040E+02    0.57591E-06   -0.46450E-06 10352   0.203E-02    0.177E-03
DAV:  10    -0.382751547383E+02    0.65742E-07   -0.23953E-07  9680   0.366E-03    0.131E-03
DAV:  11    -0.382751547040E+02    0.34293E-07   -0.78995E-08  8880   0.282E-03    0.245E-04
DAV:  12    -0.382751547068E+02   -0.27630E-08   -0.60708E-09  5184   0.697E-04
  10 F= -.38275155E+02 E0= -.38275207E+02  d E =-.291942E-01  mag=    -0.0000
       N       E                     dE             d eps       ncg     rms          rms(c)
DAV:   1    -0.383324835951E+02   -0.57329E-01   -0.10353E+00  9840   0.219E+01    0.278E+00
DAV:   2    -0.384622373992E+02   -0.12975E+00   -0.15896E+00 10064   0.132E+01    0.397E+00
DAV:   3    -0.383165978806E+02    0.14564E+00   -0.96515E-01 10448   0.116E+01    0.249E+00
DAV:   4    -0.382819639346E+02    0.34634E-01   -0.27154E-01 10464   0.644E+00    0.620E-01
DAV:   5    -0.382793335845E+02    0.26304E-02   -0.21676E-02  9872   0.135E+00    0.275E-01
DAV:   6    -0.382787004372E+02    0.63315E-03   -0.24367E-03 10480   0.468E-01    0.382E-02
DAV:   7    -0.382786958567E+02    0.45805E-05   -0.15377E-04 10816   0.937E-02    0.190E-02
DAV:   8    -0.382786934064E+02    0.24503E-05   -0.14164E-05 10880   0.384E-02    0.902E-03
DAV:   9    -0.382786927668E+02    0.63967E-06   -0.44631E-06 11264   0.215E-02    0.448E-03
DAV:  10    -0.382786924657E+02    0.30105E-06   -0.87096E-07 10640   0.914E-03    0.425E-04
DAV:  11    -0.382786924447E+02    0.21055E-07   -0.32089E-08  8064   0.155E-03    0.118E-04
DAV:  12    -0.382786924294E+02    0.15265E-07   -0.28466E-09  4944   0.489E-04    0.744E-05
DAV:  13    -0.382786924270E+02    0.24047E-08   -0.90381E-10  4896   0.327E-04
  11 F= -.38278692E+02 E0= -.38278719E+02  d E =-.353772E-02  mag=    -0.0000
       N       E                     dE             d eps       ncg     rms          rms(c)
DAV:   1    -0.382958994435E+02   -0.17207E-01   -0.32245E-01  9824   0.122E+01    0.154E+00
DAV:   2    -0.383367570560E+02   -0.40858E-01   -0.48979E-01 10032   0.730E+00    0.230E+00
DAV:   3    -0.382950016119E+02    0.41755E-01   -0.33352E-01 10496   0.655E+00    0.157E+00
DAV:   4    -0.382801677156E+02    0.14834E-01   -0.99611E-02 10528   0.391E+00    0.326E-01
DAV:   5    -0.382794144131E+02    0.75330E-03   -0.68093E-03  9680   0.727E-01    0.149E-01
DAV:   6    -0.382792309326E+02    0.18348E-03   -0.69186E-04 10800   0.249E-01    0.222E-02
DAV:   7    -0.382792286775E+02    0.22551E-05   -0.42892E-05 10832   0.501E-02    0.108E-02
DAV:   8    -0.382792276528E+02    0.10247E-05   -0.39788E-06 10568   0.207E-02    0.496E-03
DAV:   9    -0.382792273391E+02    0.31371E-06   -0.12124E-06 11480   0.111E-02    0.219E-03
DAV:  10    -0.382792272393E+02    0.99821E-07   -0.24053E-07 10664   0.479E-03    0.299E-04
DAV:  11    -0.382792272303E+02    0.89422E-08   -0.88013E-09  5440   0.981E-04
  12 F= -.38279227E+02 E0= -.38279231E+02  d E =-.407252E-02  mag=    -0.0001
       N       E                     dE             d eps       ncg     rms          rms(c)
DAV:   1    -0.382728607117E+02    0.63665E-02   -0.20943E-01 10800   0.138E+01    0.552E-01
DAV:   2    -0.382875317104E+02   -0.14671E-01   -0.14830E-01 10160   0.330E+00    0.963E-01
DAV:   3    -0.382834447422E+02    0.40870E-02   -0.64708E-02 11456   0.283E+00    0.704E-01
DAV:   4    -0.382803167279E+02    0.31280E-02   -0.17617E-02 11376   0.158E+00    0.173E-01
DAV:   5    -0.382800440021E+02    0.27273E-03   -0.93111E-04 10016   0.298E-01    0.775E-02
DAV:   6    -0.382799883588E+02    0.55643E-04   -0.22447E-04 10976   0.146E-01    0.188E-02
DAV:   7    -0.382799864383E+02    0.19205E-05   -0.31249E-05  9824   0.607E-02    0.588E-03
DAV:   8    -0.382799866815E+02   -0.24326E-06   -0.12080E-06 10496   0.985E-03    0.226E-03
DAV:   9    -0.382799867532E+02   -0.71632E-07   -0.21924E-07 11728   0.454E-03    0.124E-03
DAV:  10    -0.382799867636E+02   -0.10432E-07   -0.53179E-08  8320   0.231E-03    0.500E-04
DAV:  11    -0.382799867639E+02   -0.32196E-09   -0.23471E-09  4880   0.386E-04
  13 F= -.38279987E+02 E0= -.38279962E+02  d E =-.759534E-03  mag=    -0.0004
       N       E                     dE             d eps       ncg     rms          rms(c)
DAV:   1    -0.382593950791E+02    0.20592E-01   -0.61424E-01 10816   0.237E+01    0.941E-01
DAV:   2    -0.383024140395E+02   -0.43019E-01   -0.43434E-01 10160   0.559E+00    0.165E+00
DAV:   3    -0.382906295219E+02    0.11785E-01   -0.18996E-01 11520   0.478E+00    0.120E+00
DAV:   4    -0.382815002419E+02    0.91293E-02   -0.52950E-02 11312   0.269E+00    0.301E-01
DAV:   5    -0.382806835931E+02    0.81665E-03   -0.27458E-03 10048   0.513E-01    0.138E-01
DAV:   6    -0.382805063442E+02    0.17725E-03   -0.69804E-04 11080   0.260E-01    0.332E-02
DAV:   7    -0.382804994582E+02    0.68860E-05   -0.93435E-05  9864   0.106E-01    0.958E-03
DAV:   8    -0.382805000525E+02   -0.59433E-06   -0.38971E-06 10768   0.175E-02    0.481E-03
DAV:   9    -0.382805001578E+02   -0.10534E-06   -0.10409E-06 11400   0.986E-03    0.263E-03
DAV:  10    -0.382805001792E+02   -0.21408E-07   -0.18696E-07  9888   0.398E-03    0.188E-03
DAV:  11    -0.382805000956E+02    0.83615E-07   -0.14626E-07  9880   0.327E-03    0.213E-03
DAV:  12    -0.382805002060E+02   -0.11041E-06   -0.24478E-07 10664   0.442E-03    0.158E-03
DAV:  13    -0.382805003541E+02   -0.14809E-06   -0.54978E-07 12048   0.495E-03    0.234E-03
DAV:  14    -0.382805004002E+02   -0.46040E-07   -0.54077E-08  8232   0.222E-03    0.342E-03
DAV:  15    -0.382805006651E+02   -0.26489E-06   -0.55083E-07 11936   0.570E-03    0.360E-03
DAV:  16    -0.382805008857E+02   -0.22060E-06   -0.25152E-07 10560   0.292E-03    0.477E-03
DAV:  17    -0.382805010253E+02   -0.13967E-06   -0.10563E-07  6520   0.194E-03    0.553E-03
DAV:  18    -0.382805008821E+02    0.14326E-06   -0.28141E-08  6504   0.187E-03    0.606E-03
DAV:  19    -0.382805008867E+02   -0.46330E-08   -0.32177E-09  4512   0.489E-04
  14 F= -.38280501E+02 E0= -.38280425E+02  d E =-.127366E-02  mag=    -0.0046
       N       E                     dE             d eps       ncg     rms          rms(c)
DAV:   1    -0.382789548642E+02    0.15460E-02   -0.91631E-02 10264   0.975E+00    0.523E-01
DAV:   2    -0.382901804504E+02   -0.11226E-01   -0.10088E-01 10632   0.308E+00    0.107E+00
DAV:   3    -0.382837039549E+02    0.64765E-02   -0.69012E-02 10928   0.306E+00    0.625E-01
DAV:   4    -0.382809667562E+02    0.27372E-02   -0.13089E-02 11648   0.140E+00    0.113E-01
DAV:   5    -0.382808688481E+02    0.97908E-04   -0.68627E-04  9616   0.233E-01    0.679E-02
DAV:   6    -0.382808366589E+02    0.32189E-04   -0.21336E-04 10608   0.143E-01    0.333E-02
DAV:   7    -0.382808301149E+02    0.65440E-05   -0.45460E-05 10064   0.683E-02    0.150E-02
DAV:   8    -0.382808303557E+02   -0.24083E-06   -0.18186E-06 10528   0.108E-02    0.175E-02
DAV:   9    -0.382808310366E+02   -0.68090E-06   -0.78973E-07 10536   0.838E-03    0.170E-02
DAV:  10    -0.382808325968E+02   -0.15601E-05   -0.82025E-07 11976   0.604E-03    0.173E-02
DAV:  11    -0.382808337667E+02   -0.11700E-05   -0.68124E-07 11888   0.530E-03    0.186E-02
DAV:  12    -0.382808354588E+02   -0.16921E-05   -0.92497E-07 12168   0.622E-03    0.197E-02
DAV:  13    -0.382808389108E+02   -0.34519E-05   -0.30261E-06 12160   0.119E-02    0.213E-02
DAV:  14    -0.382808383956E+02    0.51518E-06   -0.32015E-07  8936   0.516E-03    0.238E-02
DAV:  15    -0.382808317178E+02    0.66777E-05   -0.46160E-06 11824   0.180E-02    0.243E-02
DAV:  16    -0.382808239353E+02    0.77826E-05   -0.12545E-05 12344   0.247E-02    0.218E-02
DAV:  17    -0.382808241956E+02   -0.26038E-06   -0.54373E-06 12608   0.136E-02    0.165E-02
DAV:  18    -0.382808279372E+02   -0.37416E-05   -0.10103E-06 10080   0.106E-02    0.126E-02
DAV:  19    -0.382808292446E+02   -0.13074E-05   -0.93527E-07 12408   0.652E-03    0.131E-02
DAV:  20    -0.382808294670E+02   -0.22241E-06   -0.17144E-07 10128   0.252E-03    0.145E-02
DAV:  21    -0.382808290863E+02    0.38072E-06   -0.21505E-08  5944   0.164E-03    0.151E-02
DAV:  22    -0.382808296319E+02   -0.54554E-06   -0.89730E-08  6336   0.262E-03    0.150E-02
DAV:  23    -0.382808310531E+02   -0.14213E-05   -0.81844E-07 12264   0.653E-03    0.153E-02
DAV:  24    -0.382808310587E+02   -0.55770E-08   -0.11496E-07  9608   0.237E-03    0.167E-02
DAV:  25    -0.382808291934E+02    0.18653E-05   -0.64582E-07 11856   0.662E-03    0.173E-02
DAV:  26    -0.382808294908E+02   -0.29742E-06   -0.63994E-08  7648   0.196E-03    0.161E-02
DAV:  27    -0.382808280605E+02    0.14303E-05   -0.63239E-07 11720   0.595E-03    0.160E-02
DAV:  28    -0.382808283963E+02   -0.33581E-06   -0.77055E-08  8536   0.208E-03    0.147E-02
DAV:  29    -0.382808266586E+02    0.17377E-05   -0.10688E-06 11904   0.770E-03    0.145E-02
DAV:  30    -0.382808258165E+02    0.84207E-06   -0.10111E-06 12384   0.618E-03    0.129E-02
DAV:  31    -0.382808243035E+02    0.15130E-05   -0.21676E-06 12008   0.982E-03    0.114E-02
DAV:  32    -0.382808244119E+02   -0.10832E-06   -0.88637E-07 12112   0.538E-03    0.900E-03
DAV:  33    -0.382808236552E+02    0.75667E-06   -0.15660E-06 11936   0.828E-03    0.768E-03
DAV:  34    -0.382808239740E+02   -0.31878E-06   -0.43953E-07 11352   0.386E-03    0.553E-03
DAV:  35    -0.382808235126E+02    0.46134E-06   -0.11419E-06 11904   0.730E-03    0.469E-03
DAV:  36    -0.382808236048E+02   -0.92228E-07   -0.67163E-07 12120   0.477E-03    0.294E-03
DAV:  37    -0.382808236172E+02   -0.12309E-07   -0.65929E-07 11528   0.508E-03    0.179E-03
DAV:  38    -0.382808238111E+02   -0.19398E-06   -0.93001E-08  8272   0.239E-03    0.415E-04
DAV:  39    -0.382808238310E+02   -0.19845E-07   -0.27457E-08  5472   0.162E-03    0.184E-04
DAV:  40    -0.382808238258E+02    0.51950E-08   -0.78518E-08  6944   0.188E-03
  15 F= -.38280824E+02 E0= -.38280732E+02  d E =-.322939E-03  mag=    -0.0002
       N       E                     dE             d eps       ncg     rms          rms(c)
DAV:   1    -0.382744799796E+02    0.63439E-02   -0.32581E-01 10248   0.184E+01    0.995E-01
DAV:   2    -0.383148436904E+02   -0.40364E-01   -0.37019E-01 10688   0.589E+00    0.196E+00
DAV:   3    -0.382904072436E+02    0.24436E-01   -0.24609E-01 10736   0.584E+00    0.112E+00
DAV:   4    -0.382814854879E+02    0.89218E-02   -0.44448E-02 11616   0.262E+00    0.207E-01
DAV:   5    -0.382811862867E+02    0.29920E-03   -0.25733E-03  9544   0.457E-01    0.123E-01
DAV:   6    -0.382810815927E+02    0.10469E-03   -0.74300E-04 10480   0.273E-01    0.649E-02
DAV:   7    -0.382810458970E+02    0.35696E-04   -0.15812E-04 10216   0.130E-01    0.102E-02
DAV:   8    -0.382810453641E+02    0.53289E-06   -0.69100E-06  9712   0.192E-02    0.524E-03
DAV:   9    -0.382810451741E+02    0.18996E-06   -0.97065E-07 11448   0.104E-02    0.218E-03
DAV:  10    -0.382810451012E+02    0.72927E-07   -0.12553E-07  9384   0.292E-03    0.123E-03
DAV:  11    -0.382810451051E+02   -0.39036E-08   -0.79208E-09  4968   0.989E-04
  16 F= -.38281045E+02 E0= -.38280926E+02  d E =-.544218E-03  mag=    -0.0011
       N       E                     dE             d eps       ncg     rms          rms(c)
DAV:   1    -0.382819992369E+02   -0.95414E-03   -0.96274E-02  9872   0.847E+00    0.638E-01
DAV:   2    -0.382884017926E+02   -0.64026E-02   -0.87616E-02  9904   0.309E+00    0.791E-01
DAV:   3    -0.382827941430E+02    0.56076E-02   -0.34321E-02 10208   0.192E+00    0.502E-01
DAV:   4    -0.382815568405E+02    0.12373E-02   -0.11040E-02 10608   0.129E+00    0.205E-01
DAV:   5    -0.382811695346E+02    0.38731E-03   -0.12146E-03 10504   0.362E-01    0.361E-02
DAV:   6    -0.382811562588E+02    0.13276E-04   -0.11809E-04 10120   0.966E-02    0.219E-02
DAV:   7    -0.382811542943E+02    0.19645E-05   -0.11302E-05 12304   0.337E-02    0.725E-03
DAV:   8    -0.382811548132E+02   -0.51898E-06   -0.19669E-06 10816   0.108E-02    0.409E-03
DAV:   9    -0.382811551333E+02   -0.32009E-06   -0.41733E-07 11352   0.422E-03    0.499E-03
DAV:  10    -0.382811542734E+02    0.85993E-06   -0.16322E-06 11560   0.102E-02    0.573E-03
DAV:  11    -0.382811541024E+02    0.17096E-06   -0.10549E-06 12448   0.632E-03    0.426E-03
DAV:  12    -0.382811533877E+02    0.71472E-06   -0.43971E-06 11752   0.151E-02    0.354E-03
DAV:  13    -0.382811541586E+02   -0.77091E-06   -0.22573E-06 12568   0.872E-03    0.176E-03
DAV:  14    -0.382811546416E+02   -0.48295E-06   -0.26736E-07  9168   0.539E-03    0.264E-03
DAV:  15    -0.382811544859E+02    0.15566E-06   -0.22786E-07 11480   0.355E-03    0.267E-03
DAV:  16    -0.382811543211E+02    0.16476E-06   -0.51271E-07 11928   0.488E-03    0.220E-03
DAV:  17    -0.382811540922E+02    0.22893E-06   -0.18854E-06 12144   0.954E-03    0.178E-03
DAV:  18    -0.382811543923E+02   -0.30008E-06   -0.22546E-06 12432   0.948E-03    0.183E-03
DAV:  19    -0.382811547452E+02   -0.35287E-06   -0.27724E-07  9136   0.569E-03    0.330E-03
DAV:  20    -0.382811544607E+02    0.28446E-06   -0.44316E-07 11944   0.489E-03    0.333E-03
DAV:  21    -0.382811545148E+02   -0.54120E-07   -0.83508E-08  7712   0.176E-03    0.238E-03
DAV:  22    -0.382811544303E+02    0.84516E-07   -0.19618E-07  9576   0.308E-03    0.207E-03
DAV:  23    -0.382811544309E+02   -0.59845E-09   -0.13954E-07  8416   0.224E-03    0.140E-03
DAV:  24    -0.382811544015E+02    0.29453E-07   -0.25664E-07 10696   0.336E-03    0.984E-04
DAV:  25    -0.382811544273E+02   -0.25821E-07   -0.33473E-07 11600   0.365E-03    0.622E-04
DAV:  26    -0.382811545128E+02   -0.85523E-07   -0.20199E-07  8992   0.269E-03    0.969E-04
DAV:  27    -0.382811545455E+02   -0.32715E-07   -0.21915E-08  6240   0.151E-03    0.154E-03
DAV:  28    -0.382811544430E+02    0.10255E-06   -0.19682E-07 10768   0.349E-03    0.171E-03
DAV:  29    -0.382811544172E+02    0.25808E-07   -0.19814E-07  9944   0.281E-03    0.116E-03
DAV:  30    -0.382811544270E+02   -0.98444E-08   -0.19968E-07  9768   0.282E-03    0.650E-04
DAV:  31    -0.382811544710E+02   -0.43974E-07   -0.10804E-07  7032   0.196E-03    0.464E-04
DAV:  32    -0.382811544884E+02   -0.17457E-07   -0.15496E-08  5120   0.144E-03    0.790E-04
DAV:  33    -0.382811544499E+02    0.38524E-07   -0.11283E-07  8096   0.250E-03    0.849E-04
DAV:  34    -0.382811544634E+02   -0.13457E-07   -0.34552E-08  5056   0.111E-03    0.391E-04
DAV:  35    -0.382811544742E+02   -0.10865E-07   -0.55594E-09  4464   0.837E-04    0.506E-05
DAV:  36    -0.382811544751E+02   -0.90768E-09   -0.12124E-09  4464   0.344E-04
  17 F= -.38281154E+02 E0= -.38281027E+02  d E =-.109370E-03  mag=    -0.0000
       N       E                     dE             d eps       ncg     rms          rms(c)
DAV:   1    -0.382811801736E+02   -0.25699E-04   -0.25976E-03  9896   0.139E+00    0.105E-01
DAV:   2    -0.382813570776E+02   -0.17690E-03   -0.23621E-03  9904   0.508E-01    0.128E-01
DAV:   3    -0.382811988194E+02    0.15826E-03   -0.90172E-04 10200   0.314E-01    0.781E-02
DAV:   4    -0.382811702265E+02    0.28593E-04   -0.27148E-04 10720   0.203E-01    0.343E-02
DAV:   5    -0.382811589237E+02    0.11303E-04   -0.33609E-05 10624   0.603E-02    0.575E-03
DAV:   6    -0.382811584375E+02    0.48614E-06   -0.31835E-06  9896   0.155E-02    0.329E-03
DAV:   7    -0.382811582891E+02    0.14841E-06   -0.27492E-07 11792   0.524E-03    0.107E-03
DAV:   8    -0.382811582201E+02    0.69014E-07   -0.35106E-08  8472   0.156E-03    0.189E-04
DAV:   9    -0.382811582046E+02    0.15472E-07   -0.27575E-09  4840   0.523E-04    0.127E-04
DAV:  10    -0.382811581986E+02    0.60227E-08   -0.92616E-10  4632   0.278E-04
  18 F= -.38281158E+02 E0= -.38281032E+02  d E =-.113094E-03  mag=    -0.0001
       N       E                     dE             d eps       ncg     rms          rms(c)
DAV:   1    -0.382806430246E+02    0.51518E-03   -0.16328E-02 13392   0.360E+00    0.789E-02
DAV:   2    -0.382813041577E+02   -0.66113E-03   -0.68088E-03  9680   0.574E-01    0.123E-01
DAV:   3    -0.382812593541E+02    0.44804E-04   -0.11062E-03 11264   0.389E-01    0.858E-02
DAV:   4    -0.382812110744E+02    0.48280E-04   -0.25872E-04 11680   0.197E-01    0.304E-02
DAV:   5    -0.382812003255E+02    0.10749E-04   -0.25989E-05 10552   0.632E-02    0.117E-02
DAV:   6    -0.382811989724E+02    0.13532E-05   -0.63426E-06 12304   0.292E-02    0.430E-03
DAV:   7    -0.382811989732E+02   -0.78035E-09   -0.12454E-06  9760   0.124E-02    0.108E-03
DAV:   8    -0.382811989996E+02   -0.26426E-07   -0.69934E-08  8704   0.248E-03    0.466E-04
DAV:   9    -0.382811990141E+02   -0.14488E-07   -0.72355E-09  4864   0.726E-04    0.365E-04
DAV:  10    -0.382811990166E+02   -0.24957E-08   -0.32591E-09  4736   0.385E-04
  19 F= -.38281199E+02 E0= -.38281068E+02  d E =-.408180E-04  mag=    -0.0002
       N       E                     dE             d eps       ncg     rms          rms(c)
DAV:   1    -0.382793813912E+02    0.18176E-02   -0.53943E-02 13392   0.655E+00    0.143E-01
DAV:   2    -0.382815695309E+02   -0.21881E-02   -0.22518E-02  9664   0.104E+00    0.224E-01
DAV:   3    -0.382814232081E+02    0.14632E-03   -0.36537E-03 11264   0.706E-01    0.156E-01
DAV:   4    -0.382812625261E+02    0.16068E-03   -0.86058E-04 11680   0.358E-01    0.553E-02
DAV:   5    -0.382812272329E+02    0.35293E-04   -0.86518E-05 10592   0.115E-01    0.213E-02
DAV:   6    -0.382812225804E+02    0.46525E-05   -0.21064E-05 12336   0.532E-02    0.789E-03
DAV:   7    -0.382812225308E+02    0.49535E-07   -0.41374E-06  9752   0.225E-02    0.207E-03
DAV:   8    -0.382812225937E+02   -0.62822E-07   -0.25092E-07  9728   0.458E-03    0.113E-03
DAV:   9    -0.382812226295E+02   -0.35860E-07   -0.40612E-08  6192   0.147E-03    0.113E-03
DAV:  10    -0.382812226288E+02    0.73669E-09   -0.52289E-09  4856   0.740E-04
  20 F= -.38281223E+02 E0= -.38281083E+02  d E =-.644302E-04  mag=    -0.0012
       N       E                     dE             d eps       ncg     rms          rms(c)
DAV:   1    -0.382815621687E+02   -0.33954E-03   -0.58767E-03  9696   0.167E+00    0.219E-01
DAV:   2    -0.382826081748E+02   -0.10460E-02   -0.10450E-02 10272   0.105E+00    0.386E-01
DAV:   3    -0.382817549795E+02    0.85320E-03   -0.94793E-03 10704   0.108E+00    0.284E-01
DAV:   4    -0.382812452112E+02    0.50977E-03   -0.25464E-03 11112   0.617E-01    0.386E-02
DAV:   5    -0.382812327127E+02    0.12498E-04   -0.14123E-04  9640   0.876E-02    0.204E-02
DAV:   6    -0.382812290050E+02    0.37077E-05   -0.11997E-05 10960   0.327E-02    0.427E-03
DAV:   7    -0.382812289406E+02    0.64465E-07   -0.10195E-06 10368   0.100E-02    0.377E-03
DAV:   8    -0.382812290095E+02   -0.68943E-07   -0.24435E-07 11360   0.323E-03    0.429E-03
DAV:   9    -0.382812282144E+02    0.79508E-06   -0.18058E-06 11568   0.108E-02    0.499E-03
DAV:  10    -0.382812284716E+02   -0.25716E-06   -0.23760E-07 10824   0.318E-03    0.320E-03
DAV:  11    -0.382812284028E+02    0.68840E-07   -0.11841E-07  7480   0.231E-03    0.243E-03
DAV:  12    -0.382812283627E+02    0.40081E-07   -0.10161E-07  7672   0.208E-03    0.200E-03
DAV:  13    -0.382812283560E+02    0.67103E-08   -0.55199E-08  5832   0.141E-03
  21 F= -.38281228E+02 E0= -.38281087E+02  d E =-.572718E-05  mag=    -0.0008
       N       E                     dE             d eps       ncg     rms          rms(c)
DAV:   1    -0.382812288381E+02   -0.47543E-06   -0.75138E-06  9704   0.595E-02    0.789E-03
DAV:   2    -0.382812299075E+02   -0.10694E-05   -0.13172E-05 10272   0.372E-02    0.138E-02
DAV:   3    -0.382812289848E+02    0.92267E-06   -0.12067E-05 10760   0.384E-02    0.103E-02
DAV:   4    -0.382812283739E+02    0.61096E-06   -0.33098E-06 11040   0.221E-02    0.190E-03
DAV:   5    -0.382812284030E+02   -0.29157E-07   -0.23113E-07  8736   0.352E-03    0.160E-03
DAV:   6    -0.382812284382E+02   -0.35172E-07   -0.66206E-08  6312   0.187E-03    0.169E-03
DAV:   7    -0.382812283237E+02    0.11448E-06   -0.19069E-07  9696   0.379E-03    0.207E-03
DAV:   8    -0.382812284363E+02   -0.11257E-06   -0.18915E-07 10168   0.405E-03    0.138E-03
DAV:   9    -0.382812285455E+02   -0.10920E-06   -0.32231E-07 11648   0.380E-03    0.191E-03
DAV:  10    -0.382812288146E+02   -0.26911E-06   -0.17960E-06 12216   0.952E-03    0.283E-03
DAV:  11    -0.382812284997E+02    0.31491E-06   -0.96340E-07 11208   0.969E-03    0.485E-03
DAV:  12    -0.382812292129E+02   -0.71324E-06   -0.37332E-06 11504   0.163E-02    0.357E-03
DAV:  13    -0.382812303314E+02   -0.11185E-05   -0.27891E-06 12592   0.102E-02    0.625E-03
DAV:  14    -0.382812308185E+02   -0.48710E-06   -0.38127E-07 10072   0.442E-03    0.855E-03
DAV:  15    -0.382812292175E+02    0.16010E-05   -0.15267E-06 11712   0.103E-02    0.959E-03
DAV:  16    -0.382812294028E+02   -0.18528E-06   -0.25134E-07 10904   0.313E-03    0.782E-03
DAV:  17    -0.382812295717E+02   -0.16893E-06   -0.15987E-08  4832   0.119E-03    0.713E-03
DAV:  18    -0.382812293295E+02    0.24219E-06   -0.93444E-08  6456   0.237E-03    0.710E-03
DAV:  19    -0.382812292021E+02    0.12742E-06   -0.88836E-08  8112   0.181E-03    0.664E-03
DAV:  20    -0.382812285057E+02    0.69647E-06   -0.87778E-07 12408   0.672E-03    0.640E-03
DAV:  21    -0.382812286132E+02   -0.10758E-06   -0.24219E-07 10608   0.285E-03    0.494E-03
DAV:  22    -0.382812284699E+02    0.14338E-06   -0.26408E-07  9816   0.337E-03    0.431E-03
DAV:  23    -0.382812282681E+02    0.20178E-06   -0.51275E-07 12048   0.469E-03    0.360E-03
DAV:  24    -0.382812284423E+02   -0.17422E-06   -0.59278E-08  8152   0.208E-03    0.241E-03
DAV:  25    -0.382812284941E+02   -0.51830E-07   -0.11071E-08  4480   0.106E-03    0.215E-03
DAV:  26    -0.382812285379E+02   -0.43787E-07   -0.34983E-08  4712   0.129E-03    0.224E-03
DAV:  27    -0.382812285833E+02   -0.45389E-07   -0.45998E-08  5864   0.119E-03    0.250E-03
DAV:  28    -0.382812287469E+02   -0.16359E-06   -0.43678E-07 11872   0.458E-03    0.275E-03
DAV:  29    -0.382812289680E+02   -0.22111E-06   -0.38668E-07 11632   0.387E-03    0.368E-03
DAV:  30    -0.382812291521E+02   -0.18405E-06   -0.18822E-07  8648   0.261E-03    0.456E-03
DAV:  31    -0.382812292437E+02   -0.91635E-07   -0.63967E-08  5928   0.154E-03    0.519E-03
DAV:  32    -0.382812292478E+02   -0.41146E-08   -0.13126E-08  4576   0.781E-04
  22 F= -.38281229E+02 E0= -.38281089E+02  d E =-.661902E-05  mag=    -0.0048
