 running on   24 total cores
 distrk:  each k-point on   24 cores,    1 groups
 distr:  one band on    6 cores,    4 groups
 using from now: INCAR     
 vasp.5.4.4.18Apr17-6-g9f103f2a35 (build Jan 03 2018 06:08:52) complex          
  
 POSCAR found :  2 types and       4 ions
 scaLAPACK will be used
 WARNING: for PREC=h ENMAX is automatically increase by 25 %
        this was not the case for versions prior to vasp.4.4
 WARNING: for PREC=h ENMAX is automatically increase by 25 %
        this was not the case for versions prior to vasp.4.4
 LDA part: xc-table for Pade appr. of Perdew
 POSCAR, INCAR and KPOINTS ok, starting setup
 FFT: planning ...
 WAVECAR not read
 entering main loop
       N       E                     dE             d eps       ncg     rms          rms(c)
DAV:   1     0.128102421865E+03    0.12810E+03   -0.13550E+04  4320   0.113E+03
DAV:   2    -0.143492589066E+02   -0.14245E+03   -0.13768E+03  3732   0.301E+02
DAV:   3    -0.188082447209E+02   -0.44590E+01   -0.43619E+01  4516   0.577E+01
DAV:   4    -0.188928152690E+02   -0.84571E-01   -0.84366E-01  4188   0.783E+00
DAV:   5    -0.188952026254E+02   -0.23874E-02   -0.23871E-02  4312   0.141E+00    0.241E+01
DAV:   6    -0.420884524789E+02   -0.23193E+02   -0.32835E+02  4492   0.210E+02    0.345E+01
DAV:   7    -0.183566082865E+02    0.23732E+02   -0.60602E+01  4776   0.966E+01    0.141E+01
DAV:   8    -0.158463533316E+02    0.25103E+01   -0.14665E+01  4880   0.584E+01    0.370E+00
DAV:   9    -0.159862484553E+02   -0.13990E+00   -0.70656E-01  4512   0.570E+00    0.432E+00
DAV:  10    -0.158916193937E+02    0.94629E-01   -0.17889E+00  4312   0.148E+01    0.168E+00
DAV:  11    -0.158736665868E+02    0.17953E-01   -0.74902E-02  4540   0.287E+00    0.799E-01
DAV:  12    -0.158664331443E+02    0.72334E-02   -0.34139E-02  5120   0.192E+00    0.119E-01
DAV:  13    -0.158666258999E+02   -0.19276E-03   -0.15332E-03  4368   0.298E-01    0.641E-02
DAV:  14    -0.158666954708E+02   -0.69571E-04   -0.19444E-04  4820   0.161E-01    0.723E-02
DAV:  15    -0.158666647254E+02    0.30745E-04   -0.79022E-05  4380   0.103E-01    0.317E-02
DAV:  16    -0.158666557574E+02    0.89680E-05   -0.31731E-05  5196   0.589E-02    0.964E-03
DAV:  17    -0.158666548103E+02    0.94714E-06   -0.56608E-06  5496   0.223E-02    0.108E-03
DAV:  18    -0.158666547591E+02    0.51140E-07   -0.34681E-07  5300   0.469E-03    0.791E-04
DAV:  19    -0.158666547294E+02    0.29729E-07   -0.93430E-09  2576   0.776E-04    0.732E-04
DAV:  20    -0.158666547113E+02    0.18116E-07   -0.11969E-08  2244   0.112E-03    0.323E-04
DAV:  21    -0.158666547038E+02    0.75470E-08   -0.40055E-09  2124   0.565E-04
   1 F= -.15866655E+02 E0= -.15866764E+02  d E =-.158667E+02  mag=     0.0000
 curvature:   0.00 expect dE= 0.000E+00 dE for cont linesearch  0.000E+00
 trial: gam= 0.00000 g(F)=  0.956E+00 g(S)=  0.736E+01 ort = 0.000E+00 (trialstep = 0.100E+01)
 search vector abs. value=  0.831E+01
 bond charge predicted
       N       E                     dE             d eps       ncg     rms          rms(c)
DAV:   1    -0.128923301873E+03   -0.11306E+03   -0.21892E+03  3776   0.741E+02    0.727E+01
DAV:   2    -0.273017602489E+02    0.10162E+03   -0.46676E+02  4064   0.199E+02    0.223E+01
DAV:   3    -0.388732666200E+02   -0.11572E+02   -0.31937E+02  4360   0.138E+02    0.336E+01
DAV:   4    -0.181623719240E+02    0.20711E+02   -0.55163E+01  4720   0.814E+01    0.611E+00
DAV:   5    -0.171580398793E+02    0.10043E+01   -0.26331E+00  3856   0.121E+01    0.434E+00
DAV:   6    -0.177643907850E+02   -0.60635E+00   -0.73817E+00  4552   0.224E+01    0.113E+01
DAV:   7    -0.170038022149E+02    0.76059E+00   -0.28596E+00  4244   0.130E+01    0.268E+00
DAV:   8    -0.169660358679E+02    0.37766E-01   -0.15884E-01  4728   0.324E+00    0.104E+00
DAV:   9    -0.169596473854E+02    0.63885E-02   -0.31922E-02  5124   0.137E+00    0.218E-01
DAV:  10    -0.169601190382E+02   -0.47165E-03   -0.82327E-03  5160   0.593E-01    0.192E-01
DAV:  11    -0.169598621547E+02    0.25688E-03   -0.12245E-03  4528   0.234E-01    0.692E-02
DAV:  12    -0.169598179222E+02    0.44233E-04   -0.25966E-04  5068   0.125E-01    0.823E-03
DAV:  13    -0.169598189573E+02   -0.10352E-05   -0.12102E-05  4024   0.229E-02    0.292E-03
DAV:  14    -0.169598190044E+02   -0.47046E-07   -0.70798E-07  4396   0.721E-03    0.184E-03
DAV:  15    -0.169598189317E+02    0.72634E-07   -0.28903E-08  4008   0.169E-03    0.130E-03
DAV:  16    -0.169598189146E+02    0.17131E-07   -0.19455E-08  2076   0.117E-03    0.657E-04
DAV:  17    -0.169598189150E+02   -0.37062E-09   -0.10207E-08  2416   0.599E-04
   2 F= -.16959819E+02 E0= -.16959378E+02  d E =-.109316E+01  mag=     0.0000
 trial-energy change:   -1.093164  1 .order   -1.672596   -8.313076    4.967885
 step:   0.5615(harm=  0.6259)  dis= 0.08527  next Energy=   -18.097923 (dE=-0.223E+01)
 bond charge predicted
       N       E                     dE             d eps       ncg     rms          rms(c)
DAV:   1    -0.815789909626E+02   -0.64619E+02   -0.63465E+02  4520   0.274E+02    0.807E+01
DAV:   2    -0.188910374840E+03   -0.10733E+03   -0.23320E+03  5720   0.392E+02    0.875E+01
DAV:   3    -0.401773782470E+02    0.14873E+03   -0.82520E+02  4440   0.189E+02    0.267E+01
DAV:   4    -0.300917415387E+02    0.10086E+02   -0.43249E+01  4312   0.550E+01    0.191E+01
DAV:   5    -0.190692453290E+02    0.11022E+02   -0.24424E+01  4532   0.528E+01    0.795E+00
DAV:   6    -0.181472776301E+02    0.92197E+00   -0.43840E+00  4888   0.206E+01    0.288E+00
DAV:   7    -0.185083530182E+02   -0.36108E+00   -0.45258E+00  4728   0.154E+01    0.854E+00
DAV:   8    -0.179715478475E+02    0.53681E+00   -0.25869E+00  4620   0.129E+01    0.124E+00
DAV:   9    -0.179586824602E+02    0.12865E-01   -0.35167E-02  4008   0.169E+00    0.124E+00
DAV:  10    -0.179391439801E+02    0.19538E-01   -0.17170E-01  5184   0.289E+00    0.590E-01
DAV:  11    -0.179361939053E+02    0.29501E-02   -0.12796E-02  4472   0.113E+00    0.146E-01
DAV:  12    -0.179359046900E+02    0.28922E-03   -0.10741E-03  4700   0.314E-01    0.403E-02
DAV:  13    -0.179359213113E+02   -0.16621E-04   -0.18426E-04  5056   0.114E-01    0.760E-02
DAV:  14    -0.179359083146E+02    0.12997E-04   -0.26496E-05  3820   0.404E-02    0.811E-02
DAV:  15    -0.179358705457E+02    0.37769E-04   -0.53386E-05  4288   0.797E-02    0.482E-02
DAV:  16    -0.179358530732E+02    0.17473E-04   -0.37510E-05  4880   0.569E-02    0.208E-02
DAV:  17    -0.179358488061E+02    0.42671E-05   -0.11642E-05  5348   0.298E-02    0.611E-03
DAV:  18    -0.179358484758E+02    0.33022E-06   -0.67570E-07  5388   0.641E-03    0.315E-03
DAV:  19    -0.179358483832E+02    0.92628E-07   -0.23388E-07  4148   0.377E-03    0.121E-03
DAV:  20    -0.179358483752E+02    0.79704E-08   -0.34560E-08  3720   0.120E-03
   3 F= -.17935848E+02 E0= -.17935821E+02  d E =-.206919E+01  mag=    -0.0000
 curvature:  -0.30 expect dE=-0.623E-01 dE for cont linesearch -0.102E-02
 ZBRENT: interpolating
 opt :   0.5504  next Energy=   -17.936777 (dE=-0.207E+01)
 bond charge predicted
       N       E                     dE             d eps       ncg     rms          rms(c)
DAV:   1    -0.179756124382E+02   -0.39764E-01   -0.37799E-01  4076   0.778E+00    0.234E+00
DAV:   2    -0.182623766954E+02   -0.28676E+00   -0.34547E+00  4512   0.188E+01    0.575E+00
DAV:   3    -0.179362822706E+02    0.32609E+00   -0.15304E+00  4548   0.148E+01    0.212E-01
DAV:   4    -0.179369846644E+02   -0.70239E-03   -0.20918E-02  3840   0.869E-01    0.248E-01
DAV:   5    -0.179365778483E+02    0.40682E-03   -0.16314E-03  4552   0.415E-01    0.308E-02
DAV:   6    -0.179365721054E+02    0.57429E-05   -0.78088E-05  5356   0.680E-02    0.118E-02
DAV:   7    -0.179365711938E+02    0.91161E-06   -0.74228E-06  4200   0.305E-02    0.138E-03
DAV:   8    -0.179365710648E+02    0.12899E-06   -0.16594E-07  4076   0.346E-03    0.851E-04
DAV:   9    -0.179365709887E+02    0.76080E-07   -0.52107E-08  3608   0.185E-03    0.225E-04
DAV:  10    -0.179365709877E+02    0.97270E-09   -0.37017E-09  1984   0.600E-04
   4 F= -.17936571E+02 E0= -.17936538E+02  d E =-.206992E+01  mag=     0.0000
 curvature:  -0.28 expect dE=-0.532E-01 dE for cont linesearch -0.648E-04
 ZBRENT: interpolating
 opt :   0.5464  next Energy=   -17.936659 (dE=-0.207E+01)
 bond charge predicted
       N       E                     dE             d eps       ncg     rms          rms(c)
DAV:   1    -0.179414468940E+02   -0.48759E-02   -0.47966E-02  4072   0.279E+00    0.826E-01
DAV:   2    -0.179780017763E+02   -0.36555E-01   -0.42996E-01  4528   0.668E+00    0.209E+00
DAV:   3    -0.179365344512E+02    0.41467E-01   -0.22894E-01  4544   0.516E+00    0.838E-02
DAV:   4    -0.179365573708E+02   -0.22920E-04   -0.17597E-03  3808   0.245E-01    0.777E-02
DAV:   5    -0.179365166523E+02    0.40719E-04   -0.16988E-04  4448   0.133E-01    0.854E-03
DAV:   6    -0.179365160969E+02    0.55544E-06   -0.46570E-06  4492   0.143E-02    0.240E-03
DAV:   7    -0.179365160186E+02    0.78233E-07   -0.25391E-07  4228   0.550E-03    0.576E-04
DAV:   8    -0.179365159605E+02    0.58144E-07   -0.68054E-09  2192   0.706E-04    0.235E-04
DAV:   9    -0.179365159459E+02    0.14574E-07   -0.37295E-09  1980   0.575E-04    0.383E-05
DAV:  10    -0.179365159449E+02    0.10286E-08   -0.49926E-10  1916   0.249E-04
   5 F= -.17936516E+02 E0= -.17936481E+02  d E =-.206986E+01  mag=     0.0000
 curvature:  -0.37 expect dE=-0.711E-01 dE for cont linesearch -0.133E-06
 trial: gam= 0.02265 g(F)=  0.165E+00 g(S)=  0.250E-01 ort = 0.172E-02 (trialstep = 0.909E+00)
 search vector abs. value=  0.194E+00
 bond charge predicted
       N       E                     dE             d eps       ncg     rms          rms(c)
DAV:   1    -0.183976374536E+02   -0.46112E+00   -0.41801E+00  3876   0.229E+01    0.686E+00
DAV:   2    -0.203901363819E+02   -0.19925E+01   -0.26550E+01  4460   0.543E+01    0.130E+01
DAV:   3    -0.180806883820E+02    0.23094E+01   -0.71506E+00  4544   0.409E+01    0.124E+00
DAV:   4    -0.180887809020E+02   -0.80925E-02   -0.48273E-01  4964   0.569E+00    0.122E+00
DAV:   5    -0.180786295586E+02    0.10151E-01   -0.62875E-02  4204   0.278E+00    0.860E-02
DAV:   6    -0.180786794899E+02   -0.49931E-04   -0.12932E-03  4080   0.257E-01    0.109E-01
DAV:   7    -0.180785789613E+02    0.10053E-03   -0.53094E-04  4288   0.261E-01    0.664E-03
DAV:   8    -0.180785800096E+02   -0.10482E-05   -0.17137E-05  4320   0.304E-02    0.717E-03
DAV:   9    -0.180785793658E+02    0.64374E-06   -0.40167E-06  4528   0.216E-02    0.152E-03
DAV:  10    -0.180785792776E+02    0.88245E-07   -0.26336E-07  4892   0.435E-03    0.242E-04
DAV:  11    -0.180785792792E+02   -0.15889E-08   -0.96612E-09  2280   0.696E-04
   6 F= -.18078579E+02 E0= -.18078100E+02  d E =-.142063E+00  mag=    -0.0000
 trial-energy change:   -0.142063  1 .order   -0.142312   -0.172837   -0.111787
 step:   2.5743(harm=  2.5743)  dis= 0.17127  next Energy=   -18.181174 (dE=-0.245E+00)
 bond charge predicted
       N       E                     dE             d eps       ncg     rms          rms(c)
DAV:   1    -0.191910062633E+02   -0.11124E+01   -0.13669E+01  3936   0.426E+01    0.125E+01
DAV:   2    -0.245654394700E+02   -0.53744E+01   -0.81944E+01  4400   0.101E+02    0.191E+01
DAV:   3    -0.182909757741E+02    0.62745E+01   -0.16344E+01  4608   0.666E+01    0.405E+00
DAV:   4    -0.182021798221E+02    0.88796E-01   -0.24217E+00  5112   0.163E+01    0.268E+00
DAV:   5    -0.181800845699E+02    0.22095E-01   -0.70035E-01  4428   0.942E+00    0.166E+00
DAV:   6    -0.181572200149E+02    0.22865E-01   -0.48532E-02  4904   0.237E+00    0.646E-01
DAV:   7    -0.181540274431E+02    0.31926E-02   -0.13833E-02  4928   0.131E+00    0.604E-02
DAV:   8    -0.181540465998E+02   -0.19157E-04   -0.78923E-04  4188   0.209E-01    0.234E-02
DAV:   9    -0.181540389898E+02    0.76100E-05   -0.47719E-05  4308   0.573E-02    0.539E-03
DAV:  10    -0.181540385743E+02    0.41551E-06   -0.51821E-06  4628   0.252E-02    0.986E-03
DAV:  11    -0.181540377234E+02    0.85086E-06   -0.24685E-06  5376   0.148E-02    0.214E-03
DAV:  12    -0.181540376799E+02    0.43572E-07   -0.48183E-07  5580   0.652E-03    0.121E-03
DAV:  13    -0.181540376822E+02   -0.22851E-08   -0.56659E-08  3848   0.216E-03
   7 F= -.18154038E+02 E0= -.18153883E+02  d E =-.217522E+00  mag=    -0.0000
 curvature:  -1.32 expect dE=-0.146E+00 dE for cont linesearch -0.764E-02
 ZBRENT: interpolating
 opt :   2.2169  next Energy=   -18.160040 (dE=-0.224E+00)
 bond charge predicted
       N       E                     dE             d eps       ncg     rms          rms(c)
DAV:   1    -0.182054517023E+02   -0.51414E-01   -0.59701E-01  3920   0.957E+00    0.255E+00
DAV:   2    -0.185612264995E+02   -0.35577E+00   -0.35837E+00  4580   0.212E+01    0.687E+00
DAV:   3    -0.181614707435E+02    0.39976E+00   -0.24432E+00  4600   0.158E+01    0.422E-01
DAV:   4    -0.181600817490E+02    0.13890E-02   -0.20303E-02  4040   0.103E+00    0.152E-01
DAV:   5    -0.181599984270E+02    0.83322E-04   -0.90443E-04  4192   0.270E-01    0.633E-02
DAV:   6    -0.181599686982E+02    0.29729E-04   -0.69546E-05  5152   0.703E-02    0.171E-02
DAV:   7    -0.181599666412E+02    0.20570E-05   -0.98026E-06  4968   0.264E-02    0.294E-03
DAV:   8    -0.181599667372E+02   -0.96058E-07   -0.76607E-07  3940   0.599E-03    0.200E-03
DAV:   9    -0.181599668303E+02   -0.93028E-07   -0.12056E-07  4804   0.349E-03    0.284E-04
DAV:  10    -0.181599668583E+02   -0.27982E-07   -0.54078E-09  2008   0.608E-04    0.995E-05
DAV:  11    -0.181599668650E+02   -0.67557E-08   -0.10051E-09  1968   0.344E-04
   8 F= -.18159967E+02 E0= -.18159772E+02  d E =-.223451E+00  mag=    -0.0000
 curvature:  -1.03 expect dE=-0.665E-01 dE for cont linesearch -0.481E-05
 trial: gam= 0.41680 g(F)=  0.169E-02 g(S)=  0.627E-01 ort = 0.951E-03 (trialstep = 0.117E+01)
 search vector abs. value=  0.989E-01
 bond charge predicted
       N       E                     dE             d eps       ncg     rms          rms(c)
DAV:   1    -0.205447665402E+02   -0.23848E+01   -0.25005E+01  4048   0.712E+01    0.148E+01
DAV:   2    -0.298149340415E+02   -0.92702E+01   -0.95938E+01  4544   0.121E+02    0.410E+01
DAV:   3    -0.185206537371E+02    0.11294E+02   -0.89817E+01  4472   0.727E+01    0.652E+00
DAV:   4    -0.182795681916E+02    0.24109E+00   -0.18801E+00  4160   0.139E+01    0.280E+00
DAV:   5    -0.181909886248E+02    0.88580E-01   -0.21491E-01  5464   0.383E+00    0.946E-01
DAV:   6    -0.181824043434E+02    0.85843E-02   -0.40715E-02  5408   0.166E+00    0.192E-01
DAV:   7    -0.181821189569E+02    0.28539E-03   -0.27528E-03  4232   0.565E-01    0.773E-02
DAV:   8    -0.181820930545E+02    0.25902E-04   -0.11281E-04  5032   0.929E-02    0.214E-02
DAV:   9    -0.181820932603E+02   -0.20584E-06   -0.15214E-05  4800   0.367E-02    0.444E-03
DAV:  10    -0.181820934368E+02   -0.17650E-06   -0.15267E-06  4024   0.114E-02    0.183E-03
DAV:  11    -0.181820932997E+02    0.13711E-06   -0.48394E-07  3840   0.563E-03    0.845E-04
DAV:  12    -0.181820933361E+02   -0.36323E-07   -0.33364E-08  3868   0.174E-03    0.178E-04
DAV:  13    -0.181820933341E+02    0.19741E-08   -0.23612E-09  1932   0.434E-04
   9 F= -.18182093E+02 E0= -.18181752E+02  d E =-.221265E-01  mag=    -0.0000
 trial-energy change:   -0.022126  1 .order   -0.023759   -0.075801    0.028283
 step:   0.8299(harm=  0.8527)  dis= 0.02831  next Energy=   -18.186251 (dE=-0.263E-01)
 bond charge predicted
       N       E                     dE             d eps       ncg     rms          rms(c)
DAV:   1    -0.184499812129E+02   -0.26789E+00   -0.23374E+00  4160   0.203E+01    0.602E+00
DAV:   2    -0.201216814775E+02   -0.16717E+01   -0.20639E+01  4432   0.504E+01    0.118E+01
DAV:   3    -0.181918002398E+02    0.19299E+01   -0.58551E+00  4504   0.378E+01    0.141E+00
DAV:   4    -0.181970900391E+02   -0.52898E-02   -0.41227E-01  4984   0.541E+00    0.132E+00
DAV:   5    -0.181909171276E+02    0.61729E-02   -0.12210E-01  4696   0.372E+00    0.683E-01
DAV:   6    -0.181864237520E+02    0.44934E-02   -0.10900E-02  4920   0.952E-01    0.194E-01
DAV:   7    -0.181861355161E+02    0.28824E-03   -0.13805E-03  5240   0.392E-01    0.192E-02
DAV:   8    -0.181861473335E+02   -0.11817E-04   -0.90541E-05  4104   0.644E-02    0.116E-02
DAV:   9    -0.181861454151E+02    0.19184E-05   -0.44927E-06  4024   0.193E-02    0.105E-02
DAV:  10    -0.181861444543E+02    0.96081E-06   -0.16356E-06  5172   0.917E-03    0.468E-03
DAV:  11    -0.181861442922E+02    0.16212E-06   -0.95524E-07  5292   0.101E-02    0.673E-04
DAV:  12    -0.181861443003E+02   -0.81454E-08   -0.33828E-08  3036   0.162E-03
  10 F= -.18186144E+02 E0= -.18185727E+02  d E =-.261774E-01  mag=     0.0000
 curvature:  -0.65 expect dE=-0.453E-03 dE for cont linesearch -0.840E-07
 trial: gam= 0.06962 g(F)=  0.366E-03 g(S)=  0.334E-03 ort = 0.113E-03 (trialstep = 0.110E+01)
 search vector abs. value=  0.119E-02
 bond charge predicted
       N       E                     dE             d eps       ncg     rms          rms(c)
DAV:   1    -0.181870736879E+02   -0.92940E-03   -0.13393E-02  3768   0.111E+00    0.236E-01
DAV:   2    -0.181900665396E+02   -0.29929E-02   -0.23567E-02  4424   0.179E+00    0.644E-01
DAV:   3    -0.181867065778E+02    0.33600E-02   -0.15166E-02  4640   0.139E+00    0.572E-02
DAV:   4    -0.181866841738E+02    0.22404E-04   -0.21213E-04  3920   0.964E-02    0.252E-02
DAV:   5    -0.181866800384E+02    0.41354E-05   -0.10602E-05  4320   0.328E-02    0.805E-03
DAV:   6    -0.181866796489E+02    0.38956E-06   -0.20676E-06  4832   0.112E-02    0.101E-03
DAV:   7    -0.181866796541E+02   -0.52069E-08   -0.12202E-07  4016   0.281E-03    0.252E-04
DAV:   8    -0.181866796354E+02    0.18701E-07   -0.35211E-09  2168   0.406E-04    0.168E-04
DAV:   9    -0.181866796265E+02    0.89240E-08   -0.11878E-09  1976   0.247E-04
  11 F= -.18186680E+02 E0= -.18186304E+02  d E =-.535326E-03  mag=     0.0000
 trial-energy change:   -0.000535  1 .order   -0.000528   -0.000780   -0.000276
 step:   1.6379(harm=  1.7081)  dis= 0.00875  next Energy=   -18.186748 (dE=-0.603E-03)
 bond charge predicted
       N       E                     dE             d eps       ncg     rms          rms(c)
DAV:   1    -0.181868467466E+02   -0.16711E-03   -0.31554E-03  3760   0.541E-01    0.114E-01
DAV:   2    -0.181875622198E+02   -0.71547E-03   -0.55556E-03  4416   0.869E-01    0.319E-01
DAV:   3    -0.181867622411E+02    0.79998E-03   -0.36417E-03  4632   0.674E-01    0.290E-02
DAV:   4    -0.181867562765E+02    0.59646E-05   -0.50971E-05  3912   0.479E-02    0.124E-02
DAV:   5    -0.181867554153E+02    0.86117E-06   -0.25527E-06  4304   0.161E-02    0.394E-03
DAV:   6    -0.181867553698E+02    0.45548E-07   -0.46280E-07  4840   0.526E-03    0.434E-04
DAV:   7    -0.181867553753E+02   -0.55165E-08   -0.26153E-08  3720   0.119E-03
  12 F= -.18186755E+02 E0= -.18186400E+02  d E =-.611075E-03  mag=     0.0000
 curvature:  -1.42 expect dE=-0.610E-04 dE for cont linesearch -0.616E-06
 trial: gam= 0.09316 g(F)=  0.130E-05 g(S)=  0.416E-04 ort = 0.227E-04 (trialstep = 0.121E+01)
 search vector abs. value=  0.575E-04
 bond charge predicted
       N       E                     dE             d eps       ncg     rms          rms(c)
DAV:   1    -0.181884162913E+02   -0.16609E-02   -0.13560E-02  4248   0.148E+00    0.482E-01
DAV:   2    -0.182083963328E+02   -0.19980E-01   -0.13929E-01  4640   0.418E+00    0.165E+00
DAV:   3    -0.181869336191E+02    0.21463E-01   -0.99164E-02  4584   0.336E+00    0.112E-01
DAV:   4    -0.181867861240E+02    0.14750E-03   -0.90838E-04  3816   0.200E-01    0.223E-02
DAV:   5    -0.181867803422E+02    0.57818E-05   -0.20904E-05  4184   0.388E-02    0.933E-03
DAV:   6    -0.181867804313E+02   -0.89066E-07   -0.15715E-06  4440   0.127E-02    0.415E-03
DAV:   7    -0.181867806738E+02   -0.24257E-06   -0.47480E-07  4816   0.688E-03    0.104E-03
DAV:   8    -0.181867806716E+02    0.21996E-08   -0.14919E-07  4696   0.359E-03    0.957E-04
DAV:   9    -0.181867806737E+02   -0.20391E-08   -0.18592E-08  2040   0.148E-03
  13 F= -.18186781E+02 E0= -.18186444E+02  d E =-.252984E-04  mag=    -0.0000
 trial-energy change:   -0.000025  1 .order   -0.000025   -0.000054    0.000004
 step:   1.1269(harm=  1.1260)  dis= 0.00076  next Energy=   -18.186781 (dE=-0.254E-04)
 bond charge predicted
       N       E                     dE             d eps       ncg     rms          rms(c)
DAV:   1    -0.181867884462E+02   -0.77746E-05   -0.63276E-05  4248   0.101E-01    0.338E-02
DAV:   2    -0.181868895541E+02   -0.10111E-03   -0.69067E-04  4640   0.293E-01    0.119E-01
DAV:   3    -0.181867816494E+02    0.10790E-03   -0.46743E-04  4592   0.240E-01    0.820E-03
DAV:   4    -0.181867807845E+02    0.86491E-06   -0.46461E-06  3832   0.143E-02    0.154E-03
DAV:   5    -0.181867807514E+02    0.33068E-07   -0.10907E-07  4208   0.284E-03    0.635E-04
DAV:   6    -0.181867807454E+02    0.59663E-08   -0.60550E-09  2192   0.826E-04
  14 F= -.18186781E+02 E0= -.18186443E+02  d E =-.253701E-04  mag=    -0.0000
 curvature:  -0.72 expect dE=-0.367E-05 dE for cont linesearch -0.339E-07
 trial: gam= 0.12357 g(F)=  0.200E-06 g(S)=  0.490E-05 ort = 0.164E-05 (trialstep = 0.119E+01)
 search vector abs. value=  0.638E-05
 reached required accuracy - stopping structural energy minimisation
 writing wavefunctions
