   6   6   0   0
  0.1241740E+02  0.4549928E-09  0.4549928E-09  0.4426460E-09  0.5000000E-15
  1.000000000000000E-004
  CAR 
 unknown system                          
     23.78972182    -58.68809483  301      8.79596219      1.00000000
    -58.688  0.0000E+00  0.0000E+00  0.0000E+00  0.0000E+00
    -58.413  0.0000E+00  0.0000E+00  0.0000E+00  0.0000E+00
    -58.138  0.0000E+00  0.0000E+00  0.0000E+00  0.0000E+00
    -57.863  0.0000E+00  0.0000E+00  0.0000E+00  0.0000E+00
    -57.588  0.0000E+00  0.0000E+00  0.0000E+00  0.0000E+00
    -57.313  0.0000E+00  0.0000E+00  0.0000E+00  0.0000E+00
    -57.039  0.0000E+00  0.0000E+00  0.0000E+00  0.0000E+00
    -56.764  0.0000E+00  0.0000E+00  0.0000E+00  0.0000E+00
    -56.489  0.0000E+00  0.0000E+00  0.0000E+00  0.0000E+00
    -56.214  0.0000E+00  0.0000E+00  0.0000E+00  0.0000E+00
    -55.939  0.0000E+00  0.0000E+00  0.0000E+00  0.0000E+00
    -55.664  0.0000E+00  0.0000E+00  0.0000E+00  0.0000E+00
    -55.389  0.0000E+00  0.0000E+00  0.0000E+00  0.0000E+00
    -55.114  0.0000E+00  0.0000E+00  0.0000E+00  0.0000E+00
    -54.839  0.0000E+00  0.0000E+00  0.3000E+01  0.3000E+01
    -54.564  0.0000E+00  0.0000E+00  0.5000E+01  0.5000E+01
    -54.289  0.0000E+00  0.0000E+00  0.9000E+01  0.9000E+01
    -54.014  0.0000E+00  0.0000E+00  0.9000E+01  0.9000E+01
    -53.739  0.0000E+00  0.0000E+00  0.9000E+01  0.9000E+01
    -53.464  0.0000E+00  0.0000E+00  0.9000E+01  0.9000E+01
    -53.190  0.0000E+00  0.0000E+00  0.9000E+01  0.9000E+01
    -52.915  0.0000E+00  0.0000E+00  0.9000E+01  0.9000E+01
    -52.640  0.0000E+00  0.0000E+00  0.9000E+01  0.9000E+01
    -52.365  0.0000E+00  0.0000E+00  0.9000E+01  0.9000E+01
    -52.090  0.0000E+00  0.0000E+00  0.9000E+01  0.9000E+01
    -51.815  0.0000E+00  0.0000E+00  0.9000E+01  0.9000E+01
    -51.540  0.0000E+00  0.0000E+00  0.9000E+01  0.9000E+01
    -51.265  0.0000E+00  0.0000E+00  0.9000E+01  0.9000E+01
    -50.990  0.0000E+00  0.0000E+00  0.9000E+01  0.9000E+01
    -50.715  0.0000E+00  0.0000E+00  0.9000E+01  0.9000E+01
    -50.440  0.0000E+00  0.0000E+00  0.9000E+01  0.9000E+01
    -50.165  0.0000E+00  0.0000E+00  0.9000E+01  0.9000E+01
    -49.890  0.0000E+00  0.0000E+00  0.9000E+01  0.9000E+01
    -49.616  0.0000E+00  0.0000E+00  0.9000E+01  0.9000E+01
    -49.341  0.0000E+00  0.0000E+00  0.9000E+01  0.9000E+01
    -49.066  0.0000E+00  0.0000E+00  0.9000E+01  0.9000E+01
    -48.791  0.0000E+00  0.0000E+00  0.9000E+01  0.9000E+01
    -48.516  0.0000E+00  0.0000E+00  0.9000E+01  0.9000E+01
    -48.241  0.0000E+00  0.0000E+00  0.9000E+01  0.9000E+01
    -47.966  0.0000E+00  0.0000E+00  0.9000E+01  0.9000E+01
    -47.691  0.0000E+00  0.0000E+00  0.9000E+01  0.9000E+01
    -47.416  0.0000E+00  0.0000E+00  0.9000E+01  0.9000E+01
    -47.141  0.0000E+00  0.0000E+00  0.9000E+01  0.9000E+01
    -46.866  0.0000E+00  0.0000E+00  0.9000E+01  0.9000E+01
    -46.591  0.0000E+00  0.0000E+00  0.9000E+01  0.9000E+01
    -46.316  0.0000E+00  0.0000E+00  0.9000E+01  0.9000E+01
    -46.041  0.0000E+00  0.0000E+00  0.9000E+01  0.9000E+01
    -45.767  0.0000E+00  0.0000E+00  0.9000E+01  0.9000E+01
    -45.492  0.0000E+00  0.0000E+00  0.9000E+01  0.9000E+01
    -45.217  0.0000E+00  0.0000E+00  0.9000E+01  0.9000E+01
    -44.942  0.0000E+00  0.0000E+00  0.9000E+01  0.9000E+01
    -44.667  0.0000E+00  0.0000E+00  0.9000E+01  0.9000E+01
    -44.392  0.0000E+00  0.0000E+00  0.9000E+01  0.9000E+01
    -44.117  0.0000E+00  0.0000E+00  0.9000E+01  0.9000E+01
    -43.842  0.0000E+00  0.0000E+00  0.9000E+01  0.9000E+01
    -43.567  0.0000E+00  0.0000E+00  0.9000E+01  0.9000E+01
    -43.292  0.0000E+00  0.0000E+00  0.9000E+01  0.9000E+01
    -43.017  0.0000E+00  0.0000E+00  0.9000E+01  0.9000E+01
    -42.742  0.0000E+00  0.0000E+00  0.9000E+01  0.9000E+01
    -42.467  0.0000E+00  0.0000E+00  0.9000E+01  0.9000E+01
    -42.193  0.0000E+00  0.0000E+00  0.9000E+01  0.9000E+01
    -41.918  0.0000E+00  0.0000E+00  0.9000E+01  0.9000E+01
    -41.643  0.0000E+00  0.0000E+00  0.9000E+01  0.9000E+01
    -41.368  0.0000E+00  0.0000E+00  0.9000E+01  0.9000E+01
    -41.093  0.0000E+00  0.0000E+00  0.9000E+01  0.9000E+01
    -40.818  0.0000E+00  0.0000E+00  0.9000E+01  0.9000E+01
    -40.543  0.0000E+00  0.0000E+00  0.9000E+01  0.9000E+01
    -40.268  0.0000E+00  0.0000E+00  0.9000E+01  0.9000E+01
    -39.993  0.0000E+00  0.0000E+00  0.9000E+01  0.9000E+01
    -39.718  0.0000E+00  0.0000E+00  0.9000E+01  0.9000E+01
    -39.443  0.0000E+00  0.0000E+00  0.9000E+01  0.9000E+01
    -39.168  0.0000E+00  0.0000E+00  0.9000E+01  0.9000E+01
    -38.893  0.0000E+00  0.0000E+00  0.9000E+01  0.9000E+01
    -38.618  0.0000E+00  0.0000E+00  0.9000E+01  0.9000E+01
    -38.344  0.0000E+00  0.0000E+00  0.9000E+01  0.9000E+01
    -38.069  0.0000E+00  0.0000E+00  0.9000E+01  0.9000E+01
    -37.794  0.0000E+00  0.0000E+00  0.9000E+01  0.9000E+01
    -37.519  0.0000E+00  0.0000E+00  0.9000E+01  0.9000E+01
    -37.244  0.0000E+00  0.0000E+00  0.9000E+01  0.9000E+01
    -36.969  0.0000E+00  0.0000E+00  0.9000E+01  0.9000E+01
    -36.694  0.0000E+00  0.0000E+00  0.9000E+01  0.9000E+01
    -36.419  0.0000E+00  0.0000E+00  0.9000E+01  0.9000E+01
    -36.144  0.0000E+00  0.0000E+00  0.9000E+01  0.9000E+01
    -35.869  0.0000E+00  0.0000E+00  0.9000E+01  0.9000E+01
    -35.594  0.0000E+00  0.0000E+00  0.9000E+01  0.9000E+01
    -35.319  0.0000E+00  0.0000E+00  0.9000E+01  0.9000E+01
    -35.044  0.0000E+00  0.0000E+00  0.9000E+01  0.9000E+01
    -34.770  0.0000E+00  0.0000E+00  0.9000E+01  0.9000E+01
    -34.495  0.0000E+00  0.0000E+00  0.9000E+01  0.9000E+01
    -34.220  0.0000E+00  0.0000E+00  0.9000E+01  0.9000E+01
    -33.945  0.0000E+00  0.0000E+00  0.9000E+01  0.9000E+01
    -33.670  0.0000E+00  0.0000E+00  0.9000E+01  0.9000E+01
    -33.395  0.0000E+00  0.0000E+00  0.9000E+01  0.9000E+01
    -33.120  0.0000E+00  0.0000E+00  0.9000E+01  0.9000E+01
    -32.845  0.0000E+00  0.0000E+00  0.9000E+01  0.9000E+01
    -32.570  0.0000E+00  0.0000E+00  0.9000E+01  0.9000E+01
    -32.295  0.0000E+00  0.0000E+00  0.9000E+01  0.9000E+01
    -32.020  0.0000E+00  0.0000E+00  0.9000E+01  0.9000E+01
    -31.745  0.0000E+00  0.0000E+00  0.9000E+01  0.9000E+01
    -31.470  0.0000E+00  0.0000E+00  0.9000E+01  0.9000E+01
    -31.195  0.0000E+00  0.0000E+00  0.9000E+01  0.9000E+01
    -30.921  0.0000E+00  0.0000E+00  0.9000E+01  0.9000E+01
    -30.646  0.0000E+00  0.0000E+00  0.9000E+01  0.9000E+01
    -30.371  0.0000E+00  0.0000E+00  0.9000E+01  0.9000E+01
    -30.096  0.0000E+00  0.0000E+00  0.9000E+01  0.9000E+01
    -29.821  0.0000E+00  0.0000E+00  0.9000E+01  0.9000E+01
    -29.546  0.0000E+00  0.0000E+00  0.9000E+01  0.9000E+01
    -29.271  0.0000E+00  0.0000E+00  0.9000E+01  0.9000E+01
    -28.996  0.0000E+00  0.0000E+00  0.9000E+01  0.9000E+01
    -28.721  0.0000E+00  0.0000E+00  0.9000E+01  0.9000E+01
    -28.446  0.0000E+00  0.0000E+00  0.9000E+01  0.9000E+01
    -28.171  0.0000E+00  0.0000E+00  0.9000E+01  0.9000E+01
    -27.896  0.0000E+00  0.0000E+00  0.9000E+01  0.9000E+01
    -27.621  0.0000E+00  0.0000E+00  0.9000E+01  0.9000E+01
    -27.347  0.0000E+00  0.0000E+00  0.9000E+01  0.9000E+01
    -27.072  0.0000E+00  0.0000E+00  0.9000E+01  0.9000E+01
    -26.797  0.0000E+00  0.0000E+00  0.9000E+01  0.9000E+01
    -26.522  0.0000E+00  0.0000E+00  0.9000E+01  0.9000E+01
    -26.247  0.0000E+00  0.0000E+00  0.9000E+01  0.9000E+01
    -25.972  0.0000E+00  0.0000E+00  0.9000E+01  0.9000E+01
    -25.697  0.0000E+00  0.0000E+00  0.9000E+01  0.9000E+01
    -25.422  0.0000E+00  0.0000E+00  0.9000E+01  0.9000E+01
    -25.147  0.0000E+00  0.0000E+00  0.9000E+01  0.9000E+01
    -24.872  0.0000E+00  0.0000E+00  0.9000E+01  0.9000E+01
    -24.597  0.0000E+00  0.0000E+00  0.9000E+01  0.9000E+01
    -24.322  0.0000E+00  0.0000E+00  0.9000E+01  0.9000E+01
    -24.047  0.0000E+00  0.0000E+00  0.9000E+01  0.9000E+01
    -23.772  0.0000E+00  0.0000E+00  0.9000E+01  0.9000E+01
    -23.498  0.0000E+00  0.0000E+00  0.9000E+01  0.9000E+01
    -23.223  0.0000E+00  0.0000E+00  0.9000E+01  0.9000E+01
    -22.948  0.0000E+00  0.0000E+00  0.9000E+01  0.9000E+01
    -22.673  0.0000E+00  0.0000E+00  0.9000E+01  0.9000E+01
    -22.398  0.0000E+00  0.0000E+00  0.9000E+01  0.9000E+01
    -22.123  0.0000E+00  0.0000E+00  0.9000E+01  0.9000E+01
    -21.848  0.0000E+00  0.0000E+00  0.9000E+01  0.9000E+01
    -21.573  0.0000E+00  0.0000E+00  0.9000E+01  0.9000E+01
    -21.298  0.0000E+00  0.0000E+00  0.9000E+01  0.9000E+01
    -21.023  0.0000E+00  0.0000E+00  0.9000E+01  0.9000E+01
    -20.748  0.0000E+00  0.0000E+00  0.9000E+01  0.9000E+01
    -20.473  0.0000E+00  0.0000E+00  0.9000E+01  0.9000E+01
    -20.198  0.0000E+00  0.0000E+00  0.9000E+01  0.9000E+01
    -19.924  0.0000E+00  0.0000E+00  0.9000E+01  0.9000E+01
    -19.649  0.0000E+00  0.0000E+00  0.9000E+01  0.9000E+01
    -19.374  0.0000E+00  0.0000E+00  0.9000E+01  0.9000E+01
    -19.099  0.0000E+00  0.0000E+00  0.9000E+01  0.9000E+01
    -18.824  0.0000E+00  0.0000E+00  0.9000E+01  0.9000E+01
    -18.549  0.0000E+00  0.0000E+00  0.9000E+01  0.9000E+01
    -18.274  0.0000E+00  0.0000E+00  0.9000E+01  0.9000E+01
    -17.999  0.0000E+00  0.0000E+00  0.9000E+01  0.9000E+01
    -17.724  0.0000E+00  0.0000E+00  0.9000E+01  0.9000E+01
    -17.449  0.0000E+00  0.0000E+00  0.9000E+01  0.9000E+01
    -17.174  0.0000E+00  0.0000E+00  0.9000E+01  0.9000E+01
    -16.899  0.0000E+00  0.0000E+00  0.9000E+01  0.9000E+01
    -16.624  0.0000E+00  0.0000E+00  0.9000E+01  0.9000E+01
    -16.349  0.0000E+00  0.0000E+00  0.9000E+01  0.9000E+01
    -16.075  0.0000E+00  0.0000E+00  0.9000E+01  0.9000E+01
    -15.800  0.0000E+00  0.0000E+00  0.9000E+01  0.9000E+01
    -15.525  0.0000E+00  0.0000E+00  0.9000E+01  0.9000E+01
    -15.250  0.0000E+00  0.0000E+00  0.9000E+01  0.9000E+01
    -14.975  0.0000E+00  0.0000E+00  0.9000E+01  0.9000E+01
    -14.700  0.0000E+00  0.0000E+00  0.9000E+01  0.9000E+01
    -14.425  0.0000E+00  0.0000E+00  0.9000E+01  0.9000E+01
    -14.150  0.0000E+00  0.0000E+00  0.9000E+01  0.9000E+01
    -13.875  0.0000E+00  0.0000E+00  0.9000E+01  0.9000E+01
    -13.600  0.0000E+00  0.0000E+00  0.9000E+01  0.9000E+01
    -13.325  0.0000E+00  0.0000E+00  0.9000E+01  0.9000E+01
    -13.050  0.0000E+00  0.0000E+00  0.9000E+01  0.9000E+01
    -12.775  0.0000E+00  0.0000E+00  0.9000E+01  0.9000E+01
    -12.501  0.0000E+00  0.0000E+00  0.9000E+01  0.9000E+01
    -12.226  0.0000E+00  0.0000E+00  0.9000E+01  0.9000E+01
    -11.951  0.0000E+00  0.0000E+00  0.9000E+01  0.9000E+01
    -11.676  0.0000E+00  0.0000E+00  0.9000E+01  0.9000E+01
    -11.401  0.0000E+00  0.0000E+00  0.9000E+01  0.9000E+01
    -11.126  0.0000E+00  0.0000E+00  0.9000E+01  0.9000E+01
    -10.851  0.0000E+00  0.0000E+00  0.9000E+01  0.9000E+01
    -10.576  0.0000E+00  0.0000E+00  0.9000E+01  0.9000E+01
    -10.301  0.0000E+00  0.0000E+00  0.9000E+01  0.9000E+01
    -10.026  0.0000E+00  0.0000E+00  0.9000E+01  0.9000E+01
     -9.751  0.0000E+00  0.0000E+00  0.9000E+01  0.9000E+01
     -9.476  0.0000E+00  0.0000E+00  0.9000E+01  0.9000E+01
     -9.201  0.0000E+00  0.0000E+00  0.9000E+01  0.9000E+01
     -8.926  0.0000E+00  0.0000E+00  0.9000E+01  0.9000E+01
     -8.652  0.0000E+00  0.0000E+00  0.9000E+01  0.9000E+01
     -8.377  0.0000E+00  0.0000E+00  0.9000E+01  0.9000E+01
     -8.102  0.0000E+00  0.0000E+00  0.9000E+01  0.9000E+01
     -7.827  0.0000E+00  0.0000E+00  0.9000E+01  0.9000E+01
     -7.552  0.0000E+00  0.0000E+00  0.9000E+01  0.9000E+01
     -7.277  0.0000E+00  0.0000E+00  0.9000E+01  0.9000E+01
     -7.002  0.0000E+00  0.0000E+00  0.9000E+01  0.9000E+01
     -6.727  0.0000E+00  0.0000E+00  0.9000E+01  0.9000E+01
     -6.452  0.0000E+00  0.0000E+00  0.9000E+01  0.9000E+01
     -6.177  0.0000E+00  0.0000E+00  0.9000E+01  0.9000E+01
     -5.902  0.0000E+00  0.0000E+00  0.9000E+01  0.9000E+01
     -5.627  0.0000E+00  0.0000E+00  0.9000E+01  0.9000E+01
     -5.352  0.0000E+00  0.0000E+00  0.9000E+01  0.9000E+01
     -5.078  0.0000E+00  0.0000E+00  0.9000E+01  0.9000E+01
     -4.803  0.0000E+00  0.0000E+00  0.9000E+01  0.9000E+01
     -4.528  0.0000E+00  0.0000E+00  0.9000E+01  0.9000E+01
     -4.253  0.0000E+00  0.0000E+00  0.9000E+01  0.9000E+01
     -3.978  0.0000E+00  0.0000E+00  0.9000E+01  0.9000E+01
     -3.703  0.0000E+00  0.0000E+00  0.9000E+01  0.9000E+01
     -3.428  0.0000E+00  0.0000E+00  0.9000E+01  0.9000E+01
     -3.153  0.0000E+00  0.0000E+00  0.9000E+01  0.9000E+01
     -2.878  0.0000E+00  0.0000E+00  0.9000E+01  0.9000E+01
     -2.603  0.0000E+00  0.0000E+00  0.9000E+01  0.9000E+01
     -2.328  0.0000E+00  0.0000E+00  0.9000E+01  0.9000E+01
     -2.053  0.6650E-02  0.6650E-02  0.9000E+01  0.9000E+01
     -1.778  0.1434E+00  0.1434E+00  0.9020E+01  0.9020E+01
     -1.503  0.1810E+00  0.1810E+00  0.9062E+01  0.9062E+01
     -1.229  0.2474E+00  0.2474E+00  0.9121E+01  0.9121E+01
     -0.954  0.2907E+00  0.2907E+00  0.9195E+01  0.9195E+01
     -0.679  0.3455E+00  0.3455E+00  0.9282E+01  0.9282E+01
     -0.404  0.4262E+00  0.4262E+00  0.9387E+01  0.9387E+01
     -0.129  0.5161E+00  0.5161E+00  0.9517E+01  0.9517E+01
      0.146  0.5098E+00  0.5098E+00  0.9661E+01  0.9661E+01
      0.421  0.4268E+00  0.4268E+00  0.9789E+01  0.9789E+01
      0.696  0.3628E+00  0.3628E+00  0.9897E+01  0.9897E+01
      0.971  0.3058E+00  0.3058E+00  0.9990E+01  0.9990E+01
      1.246  0.4220E+00  0.4220E+00  0.1007E+02  0.1007E+02
      1.521  0.7506E+00  0.7506E+00  0.1024E+02  0.1024E+02
      1.796  0.7604E+00  0.7604E+00  0.1045E+02  0.1045E+02
      2.071  0.5513E+00  0.5513E+00  0.1064E+02  0.1064E+02
      2.345  0.4276E+00  0.4276E+00  0.1076E+02  0.1076E+02
      2.620  0.7631E+00  0.7631E+00  0.1093E+02  0.1093E+02
      2.895  0.8435E+00  0.8435E+00  0.1116E+02  0.1116E+02
      3.170  0.7659E+00  0.7659E+00  0.1138E+02  0.1138E+02
      3.445  0.8168E+00  0.8168E+00  0.1160E+02  0.1160E+02
      3.720  0.9052E+00  0.9052E+00  0.1183E+02  0.1183E+02
      3.995  0.9868E+00  0.9868E+00  0.1209E+02  0.1209E+02
      4.270  0.1248E+01  0.1248E+01  0.1240E+02  0.1240E+02
      4.545  0.1443E+01  0.1443E+01  0.1277E+02  0.1277E+02
      4.820  0.1197E+01  0.1197E+01  0.1313E+02  0.1313E+02
      5.095  0.1746E+01  0.1746E+01  0.1352E+02  0.1352E+02
      5.370  0.2047E+01  0.2047E+01  0.1421E+02  0.1421E+02
      5.645  0.3096E+01  0.3096E+01  0.1488E+02  0.1488E+02
      5.920  0.3424E+01  0.3424E+01  0.1586E+02  0.1586E+02
      6.194  0.9215E+01  0.9215E+01  0.1743E+02  0.1743E+02
      6.469  0.6456E+01  0.6456E+01  0.1908E+02  0.1908E+02
      6.744  0.3513E+01  0.3513E+01  0.2039E+02  0.2039E+02
      7.019  0.4022E+01  0.4022E+01  0.2175E+02  0.2175E+02
      7.294  0.6276E+01  0.6276E+01  0.2306E+02  0.2306E+02
      7.569  0.1029E+02  0.1029E+02  0.2483E+02  0.2483E+02
      7.844  0.2757E+01  0.2757E+01  0.2626E+02  0.2626E+02
      8.119  0.3964E+01  0.3964E+01  0.2720E+02  0.2720E+02
      8.394  0.1876E+01  0.1876E+01  0.2797E+02  0.2797E+02
      8.669  0.1153E+01  0.1153E+01  0.2835E+02  0.2835E+02
      8.944  0.1468E+01  0.1468E+01  0.2872E+02  0.2872E+02
      9.219  0.1101E+01  0.1101E+01  0.2908E+02  0.2908E+02
      9.494  0.8854E+00  0.8854E+00  0.2935E+02  0.2935E+02
      9.768  0.8579E+00  0.8579E+00  0.2959E+02  0.2959E+02
     10.043  0.5371E+00  0.5371E+00  0.2980E+02  0.2980E+02
     10.318  0.6229E+00  0.6229E+00  0.2994E+02  0.2994E+02
     10.593  0.1224E+01  0.1224E+01  0.3020E+02  0.3020E+02
     10.868  0.1342E+01  0.1342E+01  0.3057E+02  0.3057E+02
     11.143  0.1085E+01  0.1085E+01  0.3091E+02  0.3091E+02
     11.418  0.1026E+01  0.1026E+01  0.3120E+02  0.3120E+02
     11.693  0.9312E+00  0.9312E+00  0.3147E+02  0.3147E+02
     11.968  0.9070E+00  0.9070E+00  0.3173E+02  0.3173E+02
     12.243  0.9185E+00  0.9185E+00  0.3198E+02  0.3198E+02
     12.518  0.1057E+01  0.1057E+01  0.3227E+02  0.3227E+02
     12.793  0.1003E+01  0.1003E+01  0.3256E+02  0.3256E+02
     13.068  0.9288E+00  0.9288E+00  0.3281E+02  0.3281E+02
     13.343  0.1161E+01  0.1161E+01  0.3310E+02  0.3310E+02
     13.617  0.1490E+01  0.1490E+01  0.3346E+02  0.3346E+02
     13.892  0.1238E+01  0.1238E+01  0.3382E+02  0.3382E+02
     14.167  0.1141E+01  0.1141E+01  0.3416E+02  0.3416E+02
     14.442  0.1088E+01  0.1088E+01  0.3446E+02  0.3446E+02
     14.717  0.1097E+01  0.1097E+01  0.3476E+02  0.3476E+02
     14.992  0.1112E+01  0.1112E+01  0.3507E+02  0.3507E+02
     15.267  0.1130E+01  0.1130E+01  0.3537E+02  0.3537E+02
     15.542  0.1103E+01  0.1103E+01  0.3568E+02  0.3568E+02
     15.817  0.1278E+01  0.1278E+01  0.3601E+02  0.3601E+02
     16.092  0.1419E+01  0.1419E+01  0.3638E+02  0.3638E+02
     16.367  0.1320E+01  0.1320E+01  0.3675E+02  0.3675E+02
     16.642  0.1126E+01  0.1126E+01  0.3710E+02  0.3710E+02
     16.917  0.1222E+01  0.1222E+01  0.3742E+02  0.3742E+02
     17.191  0.1170E+01  0.1170E+01  0.3777E+02  0.3777E+02
     17.466  0.1166E+01  0.1166E+01  0.3809E+02  0.3809E+02
     17.741  0.1149E+01  0.1149E+01  0.3841E+02  0.3841E+02
     18.016  0.1034E+01  0.1034E+01  0.3871E+02  0.3871E+02
     18.291  0.1167E+01  0.1167E+01  0.3901E+02  0.3901E+02
     18.566  0.1120E+01  0.1120E+01  0.3932E+02  0.3932E+02
     18.841  0.9806E+00  0.9806E+00  0.3962E+02  0.3962E+02
     19.116  0.6851E+00  0.6851E+00  0.3985E+02  0.3985E+02
     19.391  0.2159E+00  0.2159E+00  0.3996E+02  0.3996E+02
     19.666  0.4960E-01  0.4960E-01  0.3999E+02  0.3999E+02
     19.941  0.3527E-02  0.3527E-02  0.4000E+02  0.4000E+02
     20.216  0.0000E+00  0.0000E+00  0.4000E+02  0.4000E+02
     20.491  0.0000E+00  0.0000E+00  0.4000E+02  0.4000E+02
     20.766  0.0000E+00  0.0000E+00  0.4000E+02  0.4000E+02
     21.040  0.0000E+00  0.0000E+00  0.4000E+02  0.4000E+02
     21.315  0.0000E+00  0.0000E+00  0.4000E+02  0.4000E+02
     21.590  0.0000E+00  0.0000E+00  0.4000E+02  0.4000E+02
     21.865  0.0000E+00  0.0000E+00  0.4000E+02  0.4000E+02
     22.140  0.0000E+00  0.0000E+00  0.4000E+02  0.4000E+02
     22.415  0.0000E+00  0.0000E+00  0.4000E+02  0.4000E+02
     22.690  0.0000E+00  0.0000E+00  0.4000E+02  0.4000E+02
     22.965  0.0000E+00  0.0000E+00  0.4000E+02  0.4000E+02
     23.240  0.0000E+00  0.0000E+00  0.4000E+02  0.4000E+02
     23.515  0.0000E+00  0.0000E+00  0.4000E+02  0.4000E+02
     23.790  0.0000E+00  0.0000E+00  0.4000E+02  0.4000E+02
