       N       E                     dE             d eps       ncg     rms          rms(c)
DAV:   1     0.628723683586E+03    0.62872E+03   -0.32585E+04 13152   0.157E+03
DAV:   2     0.145776784891E+01   -0.62727E+03   -0.59767E+03 11224   0.505E+02
DAV:   3    -0.339221621080E+02   -0.35380E+02   -0.33805E+02 12656   0.139E+02
DAV:   4    -0.347865757969E+02   -0.86441E+00   -0.86238E+00 12112   0.209E+01
DAV:   5    -0.348098454877E+02   -0.23270E-01   -0.23268E-01 13208   0.364E+00    0.250E+01
DAV:   6    -0.460407264937E+02   -0.11231E+02   -0.10493E+02 12120   0.131E+02    0.330E+01
DAV:   7    -0.305668975714E+02    0.15474E+02   -0.38319E+01 12008   0.839E+01    0.441E+00
DAV:   8    -0.305498818222E+02    0.17016E-01   -0.25332E+00 15152   0.164E+01    0.323E+00
DAV:   9    -0.305199895590E+02    0.29892E-01   -0.53164E-01 12472   0.130E+01    0.251E+00
DAV:  10    -0.304653192630E+02    0.54670E-01   -0.23699E-01 12784   0.784E+00    0.644E-01
DAV:  11    -0.304616373459E+02    0.36819E-02   -0.18491E-02 12648   0.150E+00    0.321E-01
DAV:  12    -0.304614266274E+02    0.21072E-03   -0.65224E-03 14608   0.157E+00    0.292E-01
DAV:  13    -0.304609233888E+02    0.50324E-03   -0.29867E-03 12592   0.106E+00    0.111E-01
DAV:  14    -0.304608077546E+02    0.11563E-03   -0.36959E-04 12512   0.173E-01    0.705E-02
DAV:  15    -0.304607630148E+02    0.44740E-04   -0.13465E-04 15280   0.126E-01    0.977E-03
DAV:  16    -0.304607624193E+02    0.59557E-06   -0.11839E-05 11880   0.304E-02    0.444E-03
DAV:  17    -0.304607620313E+02    0.38800E-06   -0.64053E-07 13552   0.949E-03    0.165E-03
DAV:  18    -0.304607620019E+02    0.29409E-07   -0.92630E-08 11712   0.367E-03    0.744E-04
DAV:  19    -0.304607619503E+02    0.51508E-07   -0.15556E-08  7416   0.173E-03    0.252E-04
DAV:  20    -0.304607619359E+02    0.14423E-07   -0.55422E-09  6288   0.732E-04    0.131E-04
DAV:  21    -0.304607619342E+02    0.16917E-08   -0.10276E-09  6104   0.379E-04
   1 F= -.30460762E+02 E0= -.30460796E+02  d E =-.304608E+02  mag=     0.0000
       N       E                     dE             d eps       ncg     rms          rms(c)
DAV:   1    -0.147015208811E+03   -0.11655E+03   -0.14470E+03 10880   0.531E+02    0.828E+01
DAV:   2    -0.714595398472E+02    0.75556E+02   -0.72617E+02 12688   0.241E+02    0.559E+01
DAV:   3    -0.486312650683E+02    0.22828E+02   -0.25712E+02 12240   0.170E+02    0.377E+01
DAV:   4    -0.319252135148E+02    0.16706E+02   -0.52297E+01 13104   0.886E+01    0.765E+00
DAV:   5    -0.316311477931E+02    0.29407E+00   -0.34862E+00 14976   0.277E+01    0.719E+00
DAV:   6    -0.310910614467E+02    0.54009E+00   -0.29963E+00 12160   0.195E+01    0.458E+00
DAV:   7    -0.308092031403E+02    0.28186E+00   -0.41660E-01 13968   0.651E+00    0.204E+00
DAV:   8    -0.307974148060E+02    0.11788E-01   -0.93137E-02 12256   0.410E+00    0.137E+00
DAV:   9    -0.307805949434E+02    0.16820E-01   -0.41408E-02 13584   0.260E+00    0.557E-01
DAV:  10    -0.307784917179E+02    0.21032E-02   -0.15395E-02 16384   0.122E+00    0.265E-01
DAV:  11    -0.307780349930E+02    0.45672E-03   -0.61195E-03 12272   0.776E-01    0.123E-01
DAV:  12    -0.307779780039E+02    0.56989E-04   -0.47358E-04 12688   0.243E-01    0.743E-02
DAV:  13    -0.307779688317E+02    0.91722E-05   -0.91854E-05 13792   0.160E-01    0.588E-02
DAV:  14    -0.307779400218E+02    0.28810E-04   -0.95576E-05 12352   0.101E-01    0.423E-03
DAV:  15    -0.307779401334E+02   -0.11168E-06   -0.35929E-06 11808   0.140E-02    0.186E-03
DAV:  16    -0.307779399164E+02    0.21704E-06   -0.81390E-08 13568   0.283E-03    0.919E-04
DAV:  17    -0.307779398741E+02    0.42297E-07   -0.33635E-08  9136   0.195E-03    0.290E-04
DAV:  18    -0.307779398747E+02   -0.59117E-09   -0.57779E-09  6400   0.945E-04
   2 F= -.30777940E+02 E0= -.30777974E+02  d E =-.317178E+00  mag=    -0.0000
       N       E                     dE             d eps       ncg     rms          rms(c)
DAV:   1    -0.703260755176E+02   -0.39548E+02   -0.34413E+02 11760   0.209E+02    0.661E+01
DAV:   2    -0.116416047231E+03   -0.46090E+02   -0.65822E+02 11392   0.324E+02    0.597E+01
DAV:   3    -0.372637498593E+02    0.79152E+02   -0.22058E+02 12736   0.147E+02    0.176E+01
DAV:   4    -0.376417349354E+02   -0.37799E+00   -0.23646E+00 11936   0.106E+01    0.180E+01
DAV:   5    -0.375966882175E+02    0.45047E-01   -0.36154E-02 14320   0.144E+00    0.178E+01
DAV:   6    -0.375392998966E+02    0.57388E-01   -0.15546E-03 15008   0.586E-01    0.178E+01
DAV:   7    -0.339395748279E+02    0.35997E+01   -0.87632E+00 12368   0.254E+01    0.164E+01
DAV:   8    -0.413725023785E+02   -0.74329E+01   -0.11524E+01 12608   0.279E+01    0.261E+01
DAV:   9    -0.421786677413E+02   -0.80617E+00   -0.45071E+00 14256   0.266E+01    0.245E+01
DAV:  10    -0.361304863180E+02    0.60482E+01   -0.37996E+00 12032   0.241E+01    0.159E+01
DAV:  11    -0.339702581298E+02    0.21602E+01   -0.20739E+00 13408   0.170E+01    0.107E+01
DAV:  12    -0.337020437746E+02    0.26821E+00   -0.32655E-01 13664   0.638E+00    0.104E+01
DAV:  13    -0.333094876028E+02    0.39256E+00   -0.11323E-01 11632   0.242E+00    0.938E+00
DAV:  14    -0.318636022056E+02    0.14459E+01   -0.11354E+00 11776   0.680E+00    0.564E+00
DAV:  15    -0.314047610569E+02    0.45884E+00   -0.46570E-01 13120   0.699E+00    0.307E+00
DAV:  16    -0.313594410868E+02    0.45320E-01   -0.59623E-02 11792   0.220E+00    0.265E+00
DAV:  17    -0.312604683284E+02    0.98973E-01   -0.60713E-02 12288   0.195E+00    0.180E+00
DAV:  18    -0.312064645521E+02    0.54004E-01   -0.82629E-02 12336   0.227E+00    0.734E-01
DAV:  19    -0.311989678179E+02    0.74967E-02   -0.16229E-02 12384   0.978E-01    0.339E-01
DAV:  20    -0.311986167584E+02    0.35106E-03   -0.23879E-03 13376   0.436E-01    0.201E-01
DAV:  21    -0.311978127997E+02    0.80396E-03   -0.12607E-03 11856   0.284E-01    0.701E-02
DAV:  22    -0.311977166709E+02    0.96129E-04   -0.35080E-04 12672   0.164E-01    0.187E-02
DAV:  23    -0.311977152817E+02    0.13891E-05   -0.29177E-05 13584   0.497E-02    0.115E-02
DAV:  24    -0.311977169709E+02   -0.16891E-05   -0.60621E-06 13136   0.190E-02    0.115E-02
DAV:  25    -0.311977138270E+02    0.31438E-05   -0.30903E-06 11904   0.129E-02    0.437E-03
DAV:  26    -0.311977131552E+02    0.67183E-06   -0.14971E-06 12624   0.110E-02    0.104E-03
DAV:  27    -0.311977131283E+02    0.26850E-07   -0.11265E-07 11984   0.278E-03    0.143E-03
DAV:  28    -0.311977131392E+02   -0.10887E-07   -0.67490E-08 10912   0.230E-03    0.432E-04
DAV:  29    -0.311977131822E+02   -0.43015E-07   -0.20080E-08  9376   0.116E-03    0.317E-04
DAV:  30    -0.311977131797E+02    0.25084E-08   -0.26434E-09  6144   0.690E-04
   3 F= -.31197713E+02 E0= -.31197731E+02  d E =-.736951E+00  mag=     0.0000
       N       E                     dE             d eps       ncg     rms          rms(c)
DAV:   1    -0.312051404426E+02   -0.74273E-02   -0.57896E-02 11360   0.305E+00    0.921E-01
DAV:   2    -0.312245454619E+02   -0.19405E-01   -0.17286E-01 12208   0.465E+00    0.158E+00
DAV:   3    -0.311979620936E+02    0.26583E-01   -0.80041E-02 12112   0.326E+00    0.170E-01
DAV:   4    -0.311979500343E+02    0.12059E-04   -0.24506E-03 14416   0.676E-01    0.122E-01
DAV:   5    -0.311978188462E+02    0.13119E-03   -0.25917E-04 13664   0.238E-01    0.386E-02
DAV:   6    -0.311978225557E+02   -0.37095E-05   -0.95891E-05 12960   0.175E-01    0.449E-02
DAV:   7    -0.311978086664E+02    0.13889E-04   -0.46220E-05 12576   0.127E-01    0.463E-03
DAV:   8    -0.311978080964E+02    0.57008E-06   -0.35714E-06 12064   0.149E-02    0.164E-03
DAV:   9    -0.311978079894E+02    0.10699E-06   -0.21469E-07 13104   0.574E-03    0.703E-04
DAV:  10    -0.311978078876E+02    0.10180E-06   -0.18909E-08  7600   0.175E-03    0.202E-04
DAV:  11    -0.311978078635E+02    0.24111E-07   -0.40926E-09  6416   0.840E-04    0.613E-05
DAV:  12    -0.311978078564E+02    0.70650E-08   -0.11631E-09  6048   0.348E-04
   4 F= -.31197808E+02 E0= -.31197826E+02  d E =-.737046E+00  mag=     0.0000
       N       E                     dE             d eps       ncg     rms          rms(c)
DAV:   1    -0.309663510373E+02    0.23146E+00   -0.78021E+00 14800   0.979E+01    0.244E+00
DAV:   2    -0.313451513321E+02   -0.37880E+00   -0.40044E+00 12192   0.167E+01    0.290E+00
DAV:   3    -0.312691124326E+02    0.76039E-01   -0.42695E-01 12736   0.815E+00    0.111E+00
DAV:   4    -0.312712120942E+02   -0.20997E-02   -0.96639E-02 13520   0.549E+00    0.136E+00
DAV:   5    -0.312572681872E+02    0.13944E-01   -0.50177E-02 13168   0.352E+00    0.253E-01
DAV:   6    -0.312568806382E+02    0.38755E-03   -0.53684E-03 14800   0.732E-01    0.148E-01
DAV:   7    -0.312567907304E+02    0.89908E-04   -0.79189E-04 12992   0.505E-01    0.704E-02
DAV:   8    -0.312567749380E+02    0.15792E-04   -0.17573E-04 14208   0.202E-01    0.310E-02
DAV:   9    -0.312567773904E+02   -0.24524E-05   -0.27641E-05 12736   0.608E-02    0.525E-03
DAV:  10    -0.312567772879E+02    0.10252E-06   -0.23324E-06 14000   0.144E-02    0.316E-03
DAV:  11    -0.312567771128E+02    0.17509E-06   -0.30986E-07 12592   0.756E-03    0.474E-04
DAV:  12    -0.312567770816E+02    0.31150E-07   -0.20076E-08  7408   0.170E-03    0.188E-04
DAV:  13    -0.312567770700E+02    0.11654E-07   -0.33382E-09  6704   0.716E-04    0.476E-05
DAV:  14    -0.312567770672E+02    0.28049E-08   -0.10717E-09  6288   0.349E-04
   5 F= -.31256777E+02 E0= -.31256984E+02  d E =-.589692E-01  mag=     0.0000
       N       E                     dE             d eps       ncg     rms          rms(c)
DAV:   1    -0.293173317684E+02    0.19394E+01   -0.54368E+01 14592   0.254E+02    0.666E+00
DAV:   2    -0.320083294655E+02   -0.26910E+01   -0.28001E+01 12176   0.456E+01    0.793E+00
DAV:   3    -0.314158387598E+02    0.59249E+00   -0.30816E+00 13440   0.222E+01    0.285E+00
DAV:   4    -0.314363787484E+02   -0.20540E-01   -0.60578E-01 13312   0.144E+01    0.378E+00
DAV:   5    -0.313387619336E+02    0.97617E-01   -0.43496E-01 13216   0.912E+00    0.886E-01
DAV:   6    -0.313549641102E+02   -0.16202E-01   -0.13932E-01 15392   0.655E+00    0.177E+00
DAV:   7    -0.313327251788E+02    0.22239E-01   -0.61734E-02 12496   0.504E+00    0.182E-01
DAV:   8    -0.313330453568E+02   -0.32018E-03   -0.56631E-03 12592   0.621E-01    0.105E-01
DAV:   9    -0.313330544488E+02   -0.90920E-05   -0.38232E-04 13120   0.316E-01    0.346E-02
DAV:  10    -0.313330572968E+02   -0.28480E-05   -0.70018E-05 13744   0.140E-01    0.154E-02
DAV:  11    -0.313330554829E+02    0.18140E-05   -0.89288E-06 12736   0.536E-02    0.297E-03
DAV:  12    -0.313330553924E+02    0.90507E-07   -0.95720E-07 12560   0.109E-02    0.590E-04
DAV:  13    -0.313330553537E+02    0.38728E-07   -0.50785E-08 11264   0.206E-03    0.300E-04
DAV:  14    -0.313330553397E+02    0.13968E-07   -0.55425E-09  6848   0.937E-04    0.903E-05
DAV:  15    -0.313330553350E+02    0.46875E-08   -0.18306E-09  6432   0.515E-04
   6 F= -.31333055E+02 E0= -.31333183E+02  d E =-.135247E+00  mag=     0.0000
       N       E                     dE             d eps       ncg     rms          rms(c)
DAV:   1    -0.312909867206E+02    0.42069E-01   -0.17396E+01 15040   0.120E+02    0.720E+00
DAV:   2    -0.326429486683E+02   -0.13520E+01   -0.13922E+01 12352   0.406E+01    0.114E+01
DAV:   3    -0.315340561270E+02    0.11089E+01   -0.47433E+00 12176   0.295E+01    0.533E+00
DAV:   4    -0.314130808838E+02    0.12098E+00   -0.12338E+00 13024   0.137E+01    0.219E+00
DAV:   5    -0.313592566881E+02    0.53824E-01   -0.12655E-01 13200   0.507E+00    0.550E-01
DAV:   6    -0.313699388074E+02   -0.10682E-01   -0.70957E-02 13216   0.512E+00    0.134E+00
DAV:   7    -0.313573230743E+02    0.12616E-01   -0.36592E-02 12480   0.365E+00    0.103E-01
DAV:   8    -0.313574868602E+02   -0.16379E-03   -0.27004E-03 12544   0.407E-01    0.784E-02
DAV:   9    -0.313574728406E+02    0.14020E-04   -0.18946E-04 14288   0.201E-01    0.209E-02
DAV:  10    -0.313574771955E+02   -0.43550E-05   -0.18174E-05 13312   0.580E-02    0.635E-03
DAV:  11    -0.313574769460E+02    0.24952E-06   -0.18821E-06 13488   0.207E-02    0.159E-03
DAV:  12    -0.313574769650E+02   -0.18932E-07   -0.19330E-07 12560   0.497E-03    0.312E-04
DAV:  13    -0.313574769690E+02   -0.40418E-08   -0.94500E-09  7328   0.106E-03
   7 F= -.31357477E+02 E0= -.31357769E+02  d E =-.244216E-01  mag=    -0.0000
       N       E                     dE             d eps       ncg     rms          rms(c)
DAV:   1    -0.313569904015E+02    0.48656E-03   -0.72893E-02 13488   0.824E+00    0.490E-01
DAV:   2    -0.313635155345E+02   -0.65251E-02   -0.62845E-02 12272   0.271E+00    0.757E-01
DAV:   3    -0.313581603203E+02    0.53552E-02   -0.20567E-02 12144   0.203E+00    0.281E-01
DAV:   4    -0.313578688971E+02    0.29142E-03   -0.38735E-03 12448   0.105E+00    0.154E-01
DAV:   5    -0.313576046568E+02    0.26424E-03   -0.56380E-04 13664   0.348E-01    0.290E-02
DAV:   6    -0.313576442958E+02   -0.39639E-04   -0.24889E-04 14160   0.286E-01    0.814E-02
DAV:   7    -0.313575988037E+02    0.45492E-04   -0.13382E-04 12560   0.229E-01    0.647E-03
DAV:   8    -0.313575991083E+02   -0.30455E-06   -0.10851E-05 12432   0.257E-02    0.516E-03
DAV:   9    -0.313575989165E+02    0.19181E-06   -0.79090E-07 14512   0.126E-02    0.116E-03
DAV:  10    -0.313575988558E+02    0.60641E-07   -0.75913E-08 11952   0.394E-03    0.405E-04
DAV:  11    -0.313575988402E+02    0.15645E-07   -0.62462E-09  6672   0.138E-03    0.106E-04
DAV:  12    -0.313575988364E+02    0.37489E-08   -0.17396E-09  6144   0.448E-04
   8 F= -.31357599E+02 E0= -.31357928E+02  d E =-.245435E-01  mag=     0.0000
       N       E                     dE             d eps       ncg     rms          rms(c)
DAV:   1    -0.315813942110E+02   -0.22380E+00   -0.40898E+00 12624   0.476E+01    0.590E+00
DAV:   2    -0.323390187976E+02   -0.75762E+00   -0.66592E+00 12256   0.302E+01    0.918E+00
DAV:   3    -0.313710737037E+02    0.96795E+00   -0.28209E+00 12048   0.211E+01    0.139E+00
DAV:   4    -0.313698790215E+02    0.11947E-02   -0.15153E-01 14176   0.600E+00    0.110E+00
DAV:   5    -0.313596652625E+02    0.10214E-01   -0.30546E-02 13024   0.251E+00    0.292E-01
DAV:   6    -0.313604915734E+02   -0.82631E-03   -0.88945E-03 13920   0.161E+00    0.452E-01
DAV:   7    -0.313591139688E+02    0.13776E-02   -0.43948E-03 12624   0.136E+00    0.521E-02
DAV:   8    -0.313591095406E+02    0.44282E-05   -0.44548E-04 12272   0.198E-01    0.454E-02
DAV:   9    -0.313590945920E+02    0.14949E-04   -0.56044E-05 12928   0.101E-01    0.432E-03
DAV:  10    -0.313590941011E+02    0.49089E-06   -0.44928E-06 12208   0.202E-02    0.395E-03
DAV:  11    -0.313590937456E+02    0.35550E-06   -0.57658E-07 12576   0.951E-03    0.744E-04
DAV:  12    -0.313590936954E+02    0.50219E-07   -0.50381E-08 11040   0.328E-03    0.392E-04
DAV:  13    -0.313590936615E+02    0.33915E-07   -0.67328E-09  6736   0.146E-03    0.927E-05
DAV:  14    -0.313590936518E+02    0.96879E-08   -0.12723E-09  6400   0.365E-04
   9 F= -.31359094E+02 E0= -.31359369E+02  d E =-.149482E-02  mag=     0.0000
       N       E                     dE             d eps       ncg     rms          rms(c)
DAV:   1    -0.313904675387E+02   -0.31374E-01   -0.55615E-01 12544   0.174E+01    0.218E+00
DAV:   2    -0.315004286047E+02   -0.10996E+00   -0.98821E-01 12336   0.113E+01    0.362E+00
DAV:   3    -0.313628043026E+02    0.13762E+00   -0.42423E-01 12064   0.828E+00    0.753E-01
DAV:   4    -0.313611950605E+02    0.16092E-02   -0.35321E-02 12752   0.270E+00    0.372E-01
DAV:   5    -0.313599245577E+02    0.12705E-02   -0.32211E-03 13584   0.832E-01    0.113E-01
DAV:   6    -0.313601261945E+02   -0.20164E-03   -0.15392E-03 13392   0.726E-01    0.208E-01
DAV:   7    -0.313598288480E+02    0.29735E-03   -0.87400E-04 12544   0.599E-01    0.186E-02
DAV:   8    -0.313598301648E+02   -0.13168E-05   -0.65805E-05 12432   0.691E-02    0.138E-02
DAV:   9    -0.313598295639E+02    0.60086E-06   -0.60772E-06 13472   0.361E-02    0.242E-03
DAV:  10    -0.313598298122E+02   -0.24823E-06   -0.69916E-07 13040   0.110E-02    0.175E-03
DAV:  11    -0.313598298681E+02   -0.55950E-07   -0.99755E-08 11200   0.484E-03    0.317E-04
DAV:  12    -0.313598298805E+02   -0.12385E-07   -0.83574E-09  6704   0.118E-03    0.150E-04
DAV:  13    -0.313598298906E+02   -0.10077E-07   -0.20845E-09  6304   0.543E-04    0.453E-05
DAV:  14    -0.313598298931E+02   -0.25375E-08   -0.56048E-10  5968   0.220E-04
  10 F= -.31359830E+02 E0= -.31360125E+02  d E =-.223106E-02  mag=     0.0000
       N       E                     dE             d eps       ncg     rms          rms(c)
DAV:   1    -0.313330446936E+02    0.26785E-01   -0.78654E-01 16048   0.313E+01    0.666E-01
DAV:   2    -0.313696518607E+02   -0.36607E-01   -0.36747E-01 12112   0.495E+00    0.919E-01
DAV:   3    -0.313618719885E+02    0.77799E-02   -0.39915E-02 12272   0.264E+00    0.324E-01
DAV:   4    -0.313616192598E+02    0.25273E-03   -0.57568E-03 13408   0.128E+00    0.239E-01
DAV:   5    -0.313611442567E+02    0.47500E-03   -0.10500E-03 13008   0.577E-01    0.991E-02
DAV:   6    -0.313611280382E+02    0.16218E-04   -0.63453E-04 15616   0.421E-01    0.119E-01
DAV:   7    -0.313610370304E+02    0.91008E-04   -0.30025E-04 12800   0.335E-01    0.193E-02
DAV:   8    -0.313610360668E+02    0.96356E-06   -0.41003E-05 12624   0.679E-02    0.107E-02
DAV:   9    -0.313610358058E+02    0.26102E-06   -0.38531E-06 13152   0.301E-02    0.263E-03
DAV:  10    -0.313610359761E+02   -0.17034E-06   -0.44194E-07 12608   0.952E-03    0.975E-04
DAV:  11    -0.313610360217E+02   -0.45529E-07   -0.36281E-08 10048   0.292E-03    0.180E-04
DAV:  12    -0.313610360288E+02   -0.71486E-08   -0.39798E-09  6368   0.699E-04
  11 F= -.31361036E+02 E0= -.31361389E+02  d E =-.120614E-02  mag=    -0.0000
       N       E                     dE             d eps       ncg     rms          rms(c)
DAV:   1    -0.313550825803E+02    0.59534E-02   -0.16909E-01 16048   0.145E+01    0.308E-01
DAV:   2    -0.313629590790E+02   -0.78765E-02   -0.79426E-02 12096   0.230E+00    0.420E-01
DAV:   3    -0.313613334430E+02    0.16256E-02   -0.84578E-03 12352   0.119E+00    0.144E-01
DAV:   4    -0.313612875625E+02    0.45881E-04   -0.11424E-03 13696   0.552E-01    0.113E-01
DAV:   5    -0.313611841338E+02    0.10343E-03   -0.24645E-04 12784   0.278E-01    0.459E-02
DAV:   6    -0.313611766454E+02    0.74883E-05   -0.12524E-04 16320   0.178E-01    0.479E-02
DAV:   7    -0.313611622978E+02    0.14348E-04   -0.49789E-05 12768   0.135E-01    0.900E-03
DAV:   8    -0.313611621064E+02    0.19139E-06   -0.81030E-06 12688   0.317E-02    0.509E-03
DAV:   9    -0.313611620870E+02    0.19429E-07   -0.83499E-07 12992   0.141E-02    0.120E-03
DAV:  10    -0.313611621551E+02   -0.68088E-07   -0.91466E-08 11920   0.418E-03    0.435E-04
DAV:  11    -0.313611621785E+02   -0.23421E-07   -0.65753E-09  6496   0.125E-03    0.812E-05
DAV:  12    -0.313611621816E+02   -0.30959E-08   -0.13761E-09  6032   0.405E-04
  12 F= -.31361162E+02 E0= -.31361539E+02  d E =-.133229E-02  mag=    -0.0000
       N       E                     dE             d eps       ncg     rms          rms(c)
DAV:   1    -0.313612376677E+02   -0.75489E-04   -0.49305E-02 12912   0.543E+00    0.407E-01
DAV:   2    -0.313650224818E+02   -0.37848E-02   -0.39547E-02 12416   0.206E+00    0.583E-01
DAV:   3    -0.313614723667E+02    0.35501E-02   -0.12511E-02 12128   0.139E+00    0.152E-01
DAV:   4    -0.313615011392E+02   -0.28773E-04   -0.19031E-03 13648   0.714E-01    0.160E-01
DAV:   5    -0.313612812658E+02    0.21987E-03   -0.56279E-04 14112   0.429E-01    0.220E-02
DAV:   6    -0.313612881204E+02   -0.68546E-05   -0.88583E-05 14592   0.121E-01    0.328E-02
DAV:   7    -0.313612814122E+02    0.67081E-05   -0.23243E-05 12672   0.934E-02    0.658E-03
DAV:   8    -0.313612815065E+02   -0.94291E-07   -0.33013E-06 13632   0.228E-02    0.430E-03
DAV:   9    -0.313612815536E+02   -0.47075E-07   -0.66000E-07 13024   0.121E-02    0.126E-03
DAV:  10    -0.313612815950E+02   -0.41371E-07   -0.74149E-08 10896   0.426E-03    0.341E-04
DAV:  11    -0.313612816094E+02   -0.14437E-07   -0.62323E-09  6352   0.984E-04    0.797E-05
DAV:  12    -0.313612816183E+02   -0.89203E-08   -0.11688E-09  5952   0.399E-04
  13 F= -.31361282E+02 E0= -.31361676E+02  d E =-.119437E-03  mag=     0.0000
       N       E                     dE             d eps       ncg     rms          rms(c)
DAV:   1    -0.313612722516E+02    0.93578E-05   -0.22365E-02 12912   0.366E+00    0.273E-01
DAV:   2    -0.313629638548E+02   -0.16916E-02   -0.17883E-02 12416   0.138E+00    0.390E-01
DAV:   3    -0.313613775118E+02    0.15863E-02   -0.56262E-03 12144   0.932E-01    0.101E-01
DAV:   4    -0.313613928929E+02   -0.15381E-04   -0.85569E-04 13712   0.482E-01    0.109E-01
DAV:   5    -0.313612917341E+02    0.10116E-03   -0.26369E-04 14000   0.292E-01    0.144E-02
DAV:   6    -0.313612945876E+02   -0.28534E-05   -0.38686E-05 14464   0.762E-02    0.204E-02
DAV:   7    -0.313612920439E+02    0.25437E-05   -0.91201E-06 12656   0.583E-02    0.446E-03
DAV:   8    -0.313612921122E+02   -0.68310E-07   -0.14281E-06 13664   0.154E-02    0.290E-03
DAV:   9    -0.313612921525E+02   -0.40267E-07   -0.29247E-07 13200   0.802E-03    0.830E-04
DAV:  10    -0.313612921810E+02   -0.28542E-07   -0.31478E-08  8736   0.280E-03    0.225E-04
DAV:  11    -0.313612921918E+02   -0.10818E-07   -0.34838E-09  6192   0.677E-04    0.534E-05
DAV:  12    -0.313612921974E+02   -0.55970E-08   -0.63834E-10  5792   0.267E-04
  14 F= -.31361292E+02 E0= -.31361694E+02  d E =-.130016E-03  mag=     0.0000
       N       E                     dE             d eps       ncg     rms          rms(c)
DAV:   1    -0.313622896490E+02   -0.99746E-03   -0.27129E-02 13632   0.341E+00    0.386E-01
DAV:   2    -0.313650298267E+02   -0.27402E-02   -0.28821E-02 12352   0.195E+00    0.574E-01
DAV:   3    -0.313615133142E+02    0.35165E-02   -0.11161E-02 12096   0.126E+00    0.110E-01
DAV:   4    -0.313616042876E+02   -0.90973E-04   -0.14528E-03 14304   0.646E-01    0.172E-01
DAV:   5    -0.313613818284E+02    0.22246E-03   -0.72592E-04 12960   0.456E-01    0.114E-02
DAV:   6    -0.313613878468E+02   -0.60185E-05   -0.64124E-05 14064   0.874E-02    0.220E-02
DAV:   7    -0.313613848432E+02    0.30036E-05   -0.10261E-05 12800   0.603E-02    0.553E-03
DAV:   8    -0.313613845346E+02    0.30860E-06   -0.21758E-06 13472   0.186E-02    0.371E-03
DAV:   9    -0.313613843801E+02    0.15451E-06   -0.41371E-07 13216   0.964E-03    0.808E-04
DAV:  10    -0.313613843250E+02    0.55094E-07   -0.36617E-08 10112   0.266E-03    0.268E-04
DAV:  11    -0.313613842937E+02    0.31303E-07   -0.34004E-09  6096   0.758E-04    0.692E-05
DAV:  12    -0.313613842909E+02    0.28122E-08   -0.82656E-10  5968   0.348E-04
  15 F= -.31361384E+02 E0= -.31361799E+02  d E =-.920935E-04  mag=    -0.0000
       N       E                     dE             d eps       ncg     rms          rms(c)
DAV:   1    -0.313614342450E+02   -0.49951E-04   -0.12509E-03 13616   0.731E-01    0.828E-02
DAV:   2    -0.313615617059E+02   -0.12746E-03   -0.13314E-03 12352   0.419E-01    0.123E-01
DAV:   3    -0.313613991200E+02    0.16259E-03   -0.51198E-04 12080   0.271E-01    0.234E-02
DAV:   4    -0.313614032425E+02   -0.41225E-05   -0.66924E-05 14272   0.137E-01    0.368E-02
DAV:   5    -0.313613929368E+02    0.10306E-04   -0.33015E-05 12976   0.989E-02    0.249E-03
DAV:   6    -0.313613931727E+02   -0.23589E-06   -0.28575E-06 13696   0.176E-02    0.428E-03
DAV:   7    -0.313613930578E+02    0.11490E-06   -0.40081E-07 12864   0.118E-02    0.119E-03
DAV:   8    -0.313613930233E+02    0.34443E-07   -0.94061E-08 11888   0.396E-03    0.784E-04
DAV:   9    -0.313613930020E+02    0.21324E-07   -0.16191E-08  6032   0.202E-03    0.184E-04
DAV:  10    -0.313613929912E+02    0.10838E-07   -0.37898E-09  5760   0.668E-04    0.765E-05
DAV:  11    -0.313613929841E+02    0.70413E-08   -0.79979E-10  5632   0.259E-04
  16 F= -.31361393E+02 E0= -.31361809E+02  d E =-.100787E-03  mag=     0.0000
       N       E                     dE             d eps       ncg     rms          rms(c)
DAV:   1    -0.313613678241E+02    0.25167E-04   -0.54110E-03 14848   0.180E+00    0.901E-02
DAV:   2    -0.313614529201E+02   -0.85096E-04   -0.18484E-03 11776   0.421E-01    0.554E-02
DAV:   3    -0.313614850603E+02   -0.32140E-04   -0.33124E-04 14032   0.340E-01    0.100E-01
DAV:   4    -0.313614089420E+02    0.76118E-04   -0.23419E-04 13216   0.283E-01    0.106E-02
DAV:   5    -0.313614108361E+02   -0.18941E-05   -0.31241E-05 13552   0.622E-02    0.152E-02
DAV:   6    -0.313614095158E+02    0.13203E-05   -0.10750E-05 12336   0.581E-02    0.845E-03
DAV:   7    -0.313614090861E+02    0.42975E-06   -0.20033E-06 12720   0.243E-02    0.207E-03
DAV:   8    -0.313614091022E+02   -0.16142E-07   -0.25044E-07 14288   0.580E-03    0.964E-04
DAV:   9    -0.313614091197E+02   -0.17444E-07   -0.39094E-08  9456   0.244E-03    0.378E-04
DAV:  10    -0.313614091280E+02   -0.83055E-08   -0.45031E-09  5936   0.101E-03
  17 F= -.31361409E+02 E0= -.31361836E+02  d E =-.161438E-04  mag=     0.0000
       N       E                     dE             d eps       ncg     rms          rms(c)
DAV:   1    -0.313613023749E+02    0.10674E-03   -0.17230E-02 14816   0.321E+00    0.161E-01
DAV:   2    -0.313615738537E+02   -0.27148E-03   -0.58910E-03 11760   0.751E-01    0.988E-02
DAV:   3    -0.313616759023E+02   -0.10205E-03   -0.10531E-03 14048   0.606E-01    0.179E-01
DAV:   4    -0.313614336396E+02    0.24226E-03   -0.74422E-04 13216   0.506E-01    0.188E-02
DAV:   5    -0.313614396850E+02   -0.60454E-05   -0.98193E-05 13296   0.108E-01    0.264E-02
DAV:   6    -0.313614355900E+02    0.40950E-05   -0.32824E-05 12336   0.101E-01    0.150E-02
DAV:   7    -0.313614341865E+02    0.14034E-05   -0.63092E-06 12688   0.433E-02    0.370E-03
DAV:   8    -0.313614342088E+02   -0.22228E-07   -0.78497E-07 14400   0.103E-02    0.172E-03
DAV:   9    -0.313614342453E+02   -0.36525E-07   -0.12738E-07 12368   0.437E-03    0.675E-04
DAV:  10    -0.313614342613E+02   -0.16014E-07   -0.13135E-08  6448   0.174E-03    0.158E-04
DAV:  11    -0.313614342629E+02   -0.15661E-08   -0.23647E-09  5936   0.542E-04
  18 F= -.31361434E+02 E0= -.31361876E+02  d E =-.412787E-04  mag=     0.0000
       N       E                     dE             d eps       ncg     rms          rms(c)
DAV:   1    -0.313611668427E+02    0.26742E-03   -0.10555E-02 14448   0.309E+00    0.103E-01
DAV:   2    -0.313615379736E+02   -0.37113E-03   -0.47620E-03 12080   0.582E-01    0.805E-02
DAV:   3    -0.313614987783E+02    0.39195E-04   -0.38258E-04 13616   0.245E-01    0.565E-02
DAV:   4    -0.313614992564E+02   -0.47808E-06   -0.27333E-04 12768   0.283E-01    0.737E-02
DAV:   5    -0.313614602555E+02    0.39001E-04   -0.16329E-04 12576   0.231E-01    0.750E-03
DAV:   6    -0.313614607956E+02   -0.54016E-06   -0.11553E-05 12320   0.319E-02    0.414E-03
DAV:   7    -0.313614607853E+02    0.10308E-07   -0.82671E-07 15760   0.134E-02    0.314E-03
DAV:   8    -0.313614608044E+02   -0.19065E-07   -0.38221E-07 12992   0.953E-03    0.152E-03
DAV:   9    -0.313614608097E+02   -0.53042E-08   -0.80592E-08 10704   0.380E-03
  19 F= -.31361461E+02 E0= -.31361902E+02  d E =-.265468E-04  mag=    -0.0000
       N       E                     dE             d eps       ncg     rms          rms(c)
DAV:   1    -0.313602192564E+02    0.12415E-02   -0.50679E-02 14432   0.677E+00    0.226E-01
DAV:   2    -0.313620019059E+02   -0.17826E-02   -0.22848E-02 12064   0.127E+00    0.175E-01
DAV:   3    -0.313618137549E+02    0.18815E-03   -0.18176E-03 13616   0.532E-01    0.123E-01
DAV:   4    -0.313618107551E+02    0.29998E-05   -0.12813E-03 12832   0.610E-01    0.159E-01
DAV:   5    -0.313616299477E+02    0.18081E-03   -0.77229E-04 12592   0.510E-01    0.173E-02
DAV:   6    -0.313616317701E+02   -0.18224E-05   -0.54512E-05 12512   0.704E-02    0.796E-03
DAV:   7    -0.313616318499E+02   -0.79812E-07   -0.38030E-06 15552   0.283E-02    0.733E-03
DAV:   8    -0.313616317626E+02    0.87366E-07   -0.18291E-06 12800   0.219E-02    0.321E-03
DAV:   9    -0.313616317630E+02   -0.40745E-09   -0.36202E-07 12480   0.770E-03    0.847E-04
DAV:  10    -0.313616317898E+02   -0.26790E-07   -0.42254E-08 10144   0.299E-03    0.399E-04
DAV:  11    -0.313616317946E+02   -0.47803E-08   -0.45857E-09  6192   0.107E-03
  20 F= -.31361632E+02 E0= -.31362067E+02  d E =-.197532E-03  mag=    -0.0000
       N       E                     dE             d eps       ncg     rms          rms(c)
DAV:   1    -0.313616847685E+02   -0.52979E-04   -0.63154E-03 12992   0.224E+00    0.162E-01
DAV:   2    -0.313622896266E+02   -0.60486E-03   -0.62173E-03 12384   0.872E-01    0.238E-01
DAV:   3    -0.313616906128E+02    0.59901E-03   -0.20864E-03 12080   0.582E-01    0.629E-02
DAV:   4    -0.313616827167E+02    0.78961E-05   -0.24946E-04 12512   0.265E-01    0.495E-02
DAV:   5    -0.313616589515E+02    0.23765E-04   -0.60431E-05 13488   0.122E-01    0.901E-03
DAV:   6    -0.313616621525E+02   -0.32011E-05   -0.22860E-05 14144   0.858E-02    0.235E-02
DAV:   7    -0.313616583176E+02    0.38350E-05   -0.11690E-05 12608   0.676E-02    0.209E-03
DAV:   8    -0.313616582871E+02    0.30490E-07   -0.87283E-07 12560   0.751E-03    0.163E-03
DAV:   9    -0.313616582394E+02    0.47707E-07   -0.74661E-08 11536   0.397E-03    0.326E-04
DAV:  10    -0.313616582170E+02    0.22388E-07   -0.78224E-09  6192   0.137E-03    0.170E-04
DAV:  11    -0.313616582095E+02    0.74906E-08   -0.22681E-09  5952   0.644E-04
  21 F= -.31361658E+02 E0= -.31362087E+02  d E =-.264149E-04  mag=     0.0000
       N       E                     dE             d eps       ncg     rms          rms(c)
DAV:   1    -0.313616582360E+02   -0.19038E-07   -0.11362E-06 12992   0.300E-02    0.217E-03
DAV:   2    -0.313616582778E+02   -0.41809E-07   -0.11157E-06 12384   0.117E-02    0.320E-03
DAV:   3    -0.313616582101E+02    0.67699E-07   -0.37803E-07 12080   0.790E-03    0.874E-04
DAV:   4    -0.313616582108E+02   -0.68758E-09   -0.47154E-08  7680   0.362E-03
  22 F= -.31361658E+02 E0= -.31362087E+02  d E =-.264163E-04  mag=     0.0000
