   5   5   0   0
  0.1326973E+02  0.6869633E-09  0.6869633E-09  0.6869633E-09  0.5000000E-15
  1.000000000000000E-004
  CAR 
 unknown system                          
     22.67103803    -58.71597394  301      8.49302639      1.00000000
    -58.716  0.0000E+00  0.0000E+00  0.0000E+00  0.0000E+00
    -58.445  0.0000E+00  0.0000E+00  0.0000E+00  0.0000E+00
    -58.173  0.0000E+00  0.0000E+00  0.0000E+00  0.0000E+00
    -57.902  0.0000E+00  0.0000E+00  0.0000E+00  0.0000E+00
    -57.631  0.0000E+00  0.0000E+00  0.0000E+00  0.0000E+00
    -57.360  0.0000E+00  0.0000E+00  0.0000E+00  0.0000E+00
    -57.088  0.0000E+00  0.0000E+00  0.0000E+00  0.0000E+00
    -56.817  0.0000E+00  0.0000E+00  0.0000E+00  0.0000E+00
    -56.546  0.0000E+00  0.0000E+00  0.0000E+00  0.0000E+00
    -56.274  0.0000E+00  0.0000E+00  0.0000E+00  0.0000E+00
    -56.003  0.0000E+00  0.0000E+00  0.0000E+00  0.0000E+00
    -55.732  0.0000E+00  0.0000E+00  0.0000E+00  0.0000E+00
    -55.460  0.0000E+00  0.0000E+00  0.0000E+00  0.0000E+00
    -55.189  0.0000E+00  0.0000E+00  0.0000E+00  0.0000E+00
    -54.918  0.0000E+00  0.0000E+00  0.4000E+01  0.4000E+01
    -54.647  0.0000E+00  0.0000E+00  0.6000E+01  0.6000E+01
    -54.375  0.0000E+00  0.0000E+00  0.6000E+01  0.6000E+01
    -54.104  0.0000E+00  0.0000E+00  0.6000E+01  0.6000E+01
    -53.833  0.0000E+00  0.0000E+00  0.6000E+01  0.6000E+01
    -53.561  0.0000E+00  0.0000E+00  0.6000E+01  0.6000E+01
    -53.290  0.0000E+00  0.0000E+00  0.6000E+01  0.6000E+01
    -53.019  0.0000E+00  0.0000E+00  0.6000E+01  0.6000E+01
    -52.748  0.0000E+00  0.0000E+00  0.6000E+01  0.6000E+01
    -52.476  0.0000E+00  0.0000E+00  0.6000E+01  0.6000E+01
    -52.205  0.0000E+00  0.0000E+00  0.6000E+01  0.6000E+01
    -51.934  0.0000E+00  0.0000E+00  0.6000E+01  0.6000E+01
    -51.662  0.0000E+00  0.0000E+00  0.6000E+01  0.6000E+01
    -51.391  0.0000E+00  0.0000E+00  0.6000E+01  0.6000E+01
    -51.120  0.0000E+00  0.0000E+00  0.6000E+01  0.6000E+01
    -50.849  0.0000E+00  0.0000E+00  0.6000E+01  0.6000E+01
    -50.577  0.0000E+00  0.0000E+00  0.6000E+01  0.6000E+01
    -50.306  0.0000E+00  0.0000E+00  0.6000E+01  0.6000E+01
    -50.035  0.0000E+00  0.0000E+00  0.6000E+01  0.6000E+01
    -49.763  0.0000E+00  0.0000E+00  0.6000E+01  0.6000E+01
    -49.492  0.0000E+00  0.0000E+00  0.6000E+01  0.6000E+01
    -49.221  0.0000E+00  0.0000E+00  0.6000E+01  0.6000E+01
    -48.950  0.0000E+00  0.0000E+00  0.6000E+01  0.6000E+01
    -48.678  0.0000E+00  0.0000E+00  0.6000E+01  0.6000E+01
    -48.407  0.0000E+00  0.0000E+00  0.6000E+01  0.6000E+01
    -48.136  0.0000E+00  0.0000E+00  0.6000E+01  0.6000E+01
    -47.864  0.0000E+00  0.0000E+00  0.6000E+01  0.6000E+01
    -47.593  0.0000E+00  0.0000E+00  0.6000E+01  0.6000E+01
    -47.322  0.0000E+00  0.0000E+00  0.6000E+01  0.6000E+01
    -47.051  0.0000E+00  0.0000E+00  0.6000E+01  0.6000E+01
    -46.779  0.0000E+00  0.0000E+00  0.6000E+01  0.6000E+01
    -46.508  0.0000E+00  0.0000E+00  0.6000E+01  0.6000E+01
    -46.237  0.0000E+00  0.0000E+00  0.6000E+01  0.6000E+01
    -45.965  0.0000E+00  0.0000E+00  0.6000E+01  0.6000E+01
    -45.694  0.0000E+00  0.0000E+00  0.6000E+01  0.6000E+01
    -45.423  0.0000E+00  0.0000E+00  0.6000E+01  0.6000E+01
    -45.151  0.0000E+00  0.0000E+00  0.6000E+01  0.6000E+01
    -44.880  0.0000E+00  0.0000E+00  0.6000E+01  0.6000E+01
    -44.609  0.0000E+00  0.0000E+00  0.6000E+01  0.6000E+01
    -44.338  0.0000E+00  0.0000E+00  0.6000E+01  0.6000E+01
    -44.066  0.0000E+00  0.0000E+00  0.6000E+01  0.6000E+01
    -43.795  0.0000E+00  0.0000E+00  0.6000E+01  0.6000E+01
    -43.524  0.0000E+00  0.0000E+00  0.6000E+01  0.6000E+01
    -43.252  0.0000E+00  0.0000E+00  0.6000E+01  0.6000E+01
    -42.981  0.0000E+00  0.0000E+00  0.6000E+01  0.6000E+01
    -42.710  0.0000E+00  0.0000E+00  0.6000E+01  0.6000E+01
    -42.439  0.0000E+00  0.0000E+00  0.6000E+01  0.6000E+01
    -42.167  0.0000E+00  0.0000E+00  0.6000E+01  0.6000E+01
    -41.896  0.0000E+00  0.0000E+00  0.6000E+01  0.6000E+01
    -41.625  0.0000E+00  0.0000E+00  0.6000E+01  0.6000E+01
    -41.353  0.0000E+00  0.0000E+00  0.6000E+01  0.6000E+01
    -41.082  0.0000E+00  0.0000E+00  0.6000E+01  0.6000E+01
    -40.811  0.0000E+00  0.0000E+00  0.6000E+01  0.6000E+01
    -40.540  0.0000E+00  0.0000E+00  0.6000E+01  0.6000E+01
    -40.268  0.0000E+00  0.0000E+00  0.6000E+01  0.6000E+01
    -39.997  0.0000E+00  0.0000E+00  0.6000E+01  0.6000E+01
    -39.726  0.0000E+00  0.0000E+00  0.6000E+01  0.6000E+01
    -39.454  0.0000E+00  0.0000E+00  0.6000E+01  0.6000E+01
    -39.183  0.0000E+00  0.0000E+00  0.6000E+01  0.6000E+01
    -38.912  0.0000E+00  0.0000E+00  0.6000E+01  0.6000E+01
    -38.641  0.0000E+00  0.0000E+00  0.6000E+01  0.6000E+01
    -38.369  0.0000E+00  0.0000E+00  0.6000E+01  0.6000E+01
    -38.098  0.0000E+00  0.0000E+00  0.6000E+01  0.6000E+01
    -37.827  0.0000E+00  0.0000E+00  0.6000E+01  0.6000E+01
    -37.555  0.0000E+00  0.0000E+00  0.6000E+01  0.6000E+01
    -37.284  0.0000E+00  0.0000E+00  0.6000E+01  0.6000E+01
    -37.013  0.0000E+00  0.0000E+00  0.6000E+01  0.6000E+01
    -36.741  0.0000E+00  0.0000E+00  0.6000E+01  0.6000E+01
    -36.470  0.0000E+00  0.0000E+00  0.6000E+01  0.6000E+01
    -36.199  0.0000E+00  0.0000E+00  0.6000E+01  0.6000E+01
    -35.928  0.0000E+00  0.0000E+00  0.6000E+01  0.6000E+01
    -35.656  0.0000E+00  0.0000E+00  0.6000E+01  0.6000E+01
    -35.385  0.0000E+00  0.0000E+00  0.6000E+01  0.6000E+01
    -35.114  0.0000E+00  0.0000E+00  0.6000E+01  0.6000E+01
    -34.842  0.0000E+00  0.0000E+00  0.6000E+01  0.6000E+01
    -34.571  0.0000E+00  0.0000E+00  0.6000E+01  0.6000E+01
    -34.300  0.0000E+00  0.0000E+00  0.6000E+01  0.6000E+01
    -34.029  0.0000E+00  0.0000E+00  0.6000E+01  0.6000E+01
    -33.757  0.0000E+00  0.0000E+00  0.6000E+01  0.6000E+01
    -33.486  0.0000E+00  0.0000E+00  0.6000E+01  0.6000E+01
    -33.215  0.0000E+00  0.0000E+00  0.6000E+01  0.6000E+01
    -32.943  0.0000E+00  0.0000E+00  0.6000E+01  0.6000E+01
    -32.672  0.0000E+00  0.0000E+00  0.6000E+01  0.6000E+01
    -32.401  0.0000E+00  0.0000E+00  0.6000E+01  0.6000E+01
    -32.130  0.0000E+00  0.0000E+00  0.6000E+01  0.6000E+01
    -31.858  0.0000E+00  0.0000E+00  0.6000E+01  0.6000E+01
    -31.587  0.0000E+00  0.0000E+00  0.6000E+01  0.6000E+01
    -31.316  0.0000E+00  0.0000E+00  0.6000E+01  0.6000E+01
    -31.044  0.0000E+00  0.0000E+00  0.6000E+01  0.6000E+01
    -30.773  0.0000E+00  0.0000E+00  0.6000E+01  0.6000E+01
    -30.502  0.0000E+00  0.0000E+00  0.6000E+01  0.6000E+01
    -30.231  0.0000E+00  0.0000E+00  0.6000E+01  0.6000E+01
    -29.959  0.0000E+00  0.0000E+00  0.6000E+01  0.6000E+01
    -29.688  0.0000E+00  0.0000E+00  0.6000E+01  0.6000E+01
    -29.417  0.0000E+00  0.0000E+00  0.6000E+01  0.6000E+01
    -29.145  0.0000E+00  0.0000E+00  0.6000E+01  0.6000E+01
    -28.874  0.0000E+00  0.0000E+00  0.6000E+01  0.6000E+01
    -28.603  0.0000E+00  0.0000E+00  0.6000E+01  0.6000E+01
    -28.331  0.0000E+00  0.0000E+00  0.6000E+01  0.6000E+01
    -28.060  0.0000E+00  0.0000E+00  0.6000E+01  0.6000E+01
    -27.789  0.0000E+00  0.0000E+00  0.6000E+01  0.6000E+01
    -27.518  0.0000E+00  0.0000E+00  0.6000E+01  0.6000E+01
    -27.246  0.0000E+00  0.0000E+00  0.6000E+01  0.6000E+01
    -26.975  0.0000E+00  0.0000E+00  0.6000E+01  0.6000E+01
    -26.704  0.0000E+00  0.0000E+00  0.6000E+01  0.6000E+01
    -26.432  0.0000E+00  0.0000E+00  0.6000E+01  0.6000E+01
    -26.161  0.0000E+00  0.0000E+00  0.6000E+01  0.6000E+01
    -25.890  0.0000E+00  0.0000E+00  0.6000E+01  0.6000E+01
    -25.619  0.0000E+00  0.0000E+00  0.6000E+01  0.6000E+01
    -25.347  0.0000E+00  0.0000E+00  0.6000E+01  0.6000E+01
    -25.076  0.0000E+00  0.0000E+00  0.6000E+01  0.6000E+01
    -24.805  0.0000E+00  0.0000E+00  0.6000E+01  0.6000E+01
    -24.533  0.0000E+00  0.0000E+00  0.6000E+01  0.6000E+01
    -24.262  0.0000E+00  0.0000E+00  0.6000E+01  0.6000E+01
    -23.991  0.0000E+00  0.0000E+00  0.6000E+01  0.6000E+01
    -23.720  0.0000E+00  0.0000E+00  0.6000E+01  0.6000E+01
    -23.448  0.0000E+00  0.0000E+00  0.6000E+01  0.6000E+01
    -23.177  0.0000E+00  0.0000E+00  0.6000E+01  0.6000E+01
    -22.906  0.0000E+00  0.0000E+00  0.6000E+01  0.6000E+01
    -22.634  0.0000E+00  0.0000E+00  0.6000E+01  0.6000E+01
    -22.363  0.0000E+00  0.0000E+00  0.6000E+01  0.6000E+01
    -22.092  0.0000E+00  0.0000E+00  0.6000E+01  0.6000E+01
    -21.821  0.0000E+00  0.0000E+00  0.6000E+01  0.6000E+01
    -21.549  0.0000E+00  0.0000E+00  0.6000E+01  0.6000E+01
    -21.278  0.0000E+00  0.0000E+00  0.6000E+01  0.6000E+01
    -21.007  0.0000E+00  0.0000E+00  0.6000E+01  0.6000E+01
    -20.735  0.0000E+00  0.0000E+00  0.6000E+01  0.6000E+01
    -20.464  0.0000E+00  0.0000E+00  0.6000E+01  0.6000E+01
    -20.193  0.0000E+00  0.0000E+00  0.6000E+01  0.6000E+01
    -19.921  0.0000E+00  0.0000E+00  0.6000E+01  0.6000E+01
    -19.650  0.0000E+00  0.0000E+00  0.6000E+01  0.6000E+01
    -19.379  0.0000E+00  0.0000E+00  0.6000E+01  0.6000E+01
    -19.108  0.0000E+00  0.0000E+00  0.6000E+01  0.6000E+01
    -18.836  0.0000E+00  0.0000E+00  0.6000E+01  0.6000E+01
    -18.565  0.0000E+00  0.0000E+00  0.6000E+01  0.6000E+01
    -18.294  0.0000E+00  0.0000E+00  0.6000E+01  0.6000E+01
    -18.022  0.0000E+00  0.0000E+00  0.6000E+01  0.6000E+01
    -17.751  0.0000E+00  0.0000E+00  0.6000E+01  0.6000E+01
    -17.480  0.0000E+00  0.0000E+00  0.6000E+01  0.6000E+01
    -17.209  0.0000E+00  0.0000E+00  0.6000E+01  0.6000E+01
    -16.937  0.0000E+00  0.0000E+00  0.6000E+01  0.6000E+01
    -16.666  0.0000E+00  0.0000E+00  0.6000E+01  0.6000E+01
    -16.395  0.0000E+00  0.0000E+00  0.6000E+01  0.6000E+01
    -16.123  0.0000E+00  0.0000E+00  0.6000E+01  0.6000E+01
    -15.852  0.0000E+00  0.0000E+00  0.6000E+01  0.6000E+01
    -15.581  0.0000E+00  0.0000E+00  0.6000E+01  0.6000E+01
    -15.310  0.0000E+00  0.0000E+00  0.6000E+01  0.6000E+01
    -15.038  0.0000E+00  0.0000E+00  0.6000E+01  0.6000E+01
    -14.767  0.0000E+00  0.0000E+00  0.6000E+01  0.6000E+01
    -14.496  0.0000E+00  0.0000E+00  0.6000E+01  0.6000E+01
    -14.224  0.0000E+00  0.0000E+00  0.6000E+01  0.6000E+01
    -13.953  0.0000E+00  0.0000E+00  0.6000E+01  0.6000E+01
    -13.682  0.0000E+00  0.0000E+00  0.6000E+01  0.6000E+01
    -13.411  0.0000E+00  0.0000E+00  0.6000E+01  0.6000E+01
    -13.139  0.0000E+00  0.0000E+00  0.6000E+01  0.6000E+01
    -12.868  0.0000E+00  0.0000E+00  0.6000E+01  0.6000E+01
    -12.597  0.0000E+00  0.0000E+00  0.6000E+01  0.6000E+01
    -12.325  0.0000E+00  0.0000E+00  0.6000E+01  0.6000E+01
    -12.054  0.0000E+00  0.0000E+00  0.6000E+01  0.6000E+01
    -11.783  0.0000E+00  0.0000E+00  0.6000E+01  0.6000E+01
    -11.512  0.0000E+00  0.0000E+00  0.6000E+01  0.6000E+01
    -11.240  0.0000E+00  0.0000E+00  0.6000E+01  0.6000E+01
    -10.969  0.0000E+00  0.0000E+00  0.6000E+01  0.6000E+01
    -10.698  0.0000E+00  0.0000E+00  0.6000E+01  0.6000E+01
    -10.426  0.0000E+00  0.0000E+00  0.6000E+01  0.6000E+01
    -10.155  0.0000E+00  0.0000E+00  0.6000E+01  0.6000E+01
     -9.884  0.0000E+00  0.0000E+00  0.6000E+01  0.6000E+01
     -9.612  0.0000E+00  0.0000E+00  0.6000E+01  0.6000E+01
     -9.341  0.0000E+00  0.0000E+00  0.6000E+01  0.6000E+01
     -9.070  0.0000E+00  0.0000E+00  0.6000E+01  0.6000E+01
     -8.799  0.0000E+00  0.0000E+00  0.6000E+01  0.6000E+01
     -8.527  0.0000E+00  0.0000E+00  0.6000E+01  0.6000E+01
     -8.256  0.0000E+00  0.0000E+00  0.6000E+01  0.6000E+01
     -7.985  0.0000E+00  0.0000E+00  0.6000E+01  0.6000E+01
     -7.713  0.0000E+00  0.0000E+00  0.6000E+01  0.6000E+01
     -7.442  0.0000E+00  0.0000E+00  0.6000E+01  0.6000E+01
     -7.171  0.0000E+00  0.0000E+00  0.6000E+01  0.6000E+01
     -6.900  0.0000E+00  0.0000E+00  0.6000E+01  0.6000E+01
     -6.628  0.0000E+00  0.0000E+00  0.6000E+01  0.6000E+01
     -6.357  0.0000E+00  0.0000E+00  0.6000E+01  0.6000E+01
     -6.086  0.0000E+00  0.0000E+00  0.6000E+01  0.6000E+01
     -5.814  0.0000E+00  0.0000E+00  0.6000E+01  0.6000E+01
     -5.543  0.0000E+00  0.0000E+00  0.6000E+01  0.6000E+01
     -5.272  0.0000E+00  0.0000E+00  0.6000E+01  0.6000E+01
     -5.001  0.0000E+00  0.0000E+00  0.6000E+01  0.6000E+01
     -4.729  0.0000E+00  0.0000E+00  0.6000E+01  0.6000E+01
     -4.458  0.0000E+00  0.0000E+00  0.6000E+01  0.6000E+01
     -4.187  0.0000E+00  0.0000E+00  0.6000E+01  0.6000E+01
     -3.915  0.0000E+00  0.0000E+00  0.6000E+01  0.6000E+01
     -3.644  0.0000E+00  0.0000E+00  0.6000E+01  0.6000E+01
     -3.373  0.0000E+00  0.0000E+00  0.6000E+01  0.6000E+01
     -3.102  0.0000E+00  0.0000E+00  0.6000E+01  0.6000E+01
     -2.830  0.0000E+00  0.0000E+00  0.6000E+01  0.6000E+01
     -2.559  0.0000E+00  0.0000E+00  0.6000E+01  0.6000E+01
     -2.288  0.3915E-01  0.3915E-01  0.6003E+01  0.6003E+01
     -2.016  0.1529E+00  0.1529E+00  0.6028E+01  0.6028E+01
     -1.745  0.2338E+00  0.2338E+00  0.6083E+01  0.6083E+01
     -1.474  0.2186E+00  0.2186E+00  0.6145E+01  0.6145E+01
     -1.202  0.2156E+00  0.2156E+00  0.6203E+01  0.6203E+01
     -0.931  0.2263E+00  0.2263E+00  0.6263E+01  0.6263E+01
     -0.660  0.2580E+00  0.2580E+00  0.6328E+01  0.6328E+01
     -0.389  0.3222E+00  0.3222E+00  0.6407E+01  0.6407E+01
     -0.117  0.3515E+00  0.3515E+00  0.6499E+01  0.6499E+01
      0.154  0.3793E+00  0.3793E+00  0.6598E+01  0.6598E+01
      0.425  0.4096E+00  0.4096E+00  0.6705E+01  0.6705E+01
      0.697  0.5062E+00  0.5062E+00  0.6828E+01  0.6828E+01
      0.968  0.5496E+00  0.5496E+00  0.6972E+01  0.6972E+01
      1.239  0.4932E+00  0.4932E+00  0.7113E+01  0.7113E+01
      1.510  0.4725E+00  0.4725E+00  0.7243E+01  0.7243E+01
      1.782  0.4705E+00  0.4705E+00  0.7370E+01  0.7370E+01
      2.053  0.5431E+00  0.5431E+00  0.7504E+01  0.7504E+01
      2.324  0.7571E+00  0.7571E+00  0.7678E+01  0.7678E+01
      2.596  0.7850E+00  0.7850E+00  0.7897E+01  0.7897E+01
      2.867  0.6479E+00  0.6479E+00  0.8084E+01  0.8084E+01
      3.138  0.6370E+00  0.6370E+00  0.8256E+01  0.8256E+01
      3.409  0.6386E+00  0.6386E+00  0.8426E+01  0.8426E+01
      3.681  0.8202E+00  0.8202E+00  0.8622E+01  0.8622E+01
      3.952  0.1052E+01  0.1052E+01  0.8881E+01  0.8881E+01
      4.223  0.6956E+00  0.6956E+00  0.9128E+01  0.9128E+01
      4.495  0.1208E+01  0.1208E+01  0.9378E+01  0.9378E+01
      4.766  0.1279E+01  0.1279E+01  0.9741E+01  0.9741E+01
      5.037  0.1610E+01  0.1610E+01  0.1016E+02  0.1016E+02
      5.308  0.1795E+01  0.1795E+01  0.1055E+02  0.1055E+02
      5.580  0.4014E+01  0.4014E+01  0.1113E+02  0.1113E+02
      5.851  0.3876E+01  0.3876E+01  0.1242E+02  0.1242E+02
      6.122  0.3144E+01  0.3144E+01  0.1349E+02  0.1349E+02
      6.394  0.4414E+01  0.4414E+01  0.1430E+02  0.1430E+02
      6.665  0.3842E+01  0.3842E+01  0.1551E+02  0.1551E+02
      6.936  0.3380E+01  0.3380E+01  0.1630E+02  0.1630E+02
      7.208  0.5058E+01  0.5058E+01  0.1774E+02  0.1774E+02
      7.479  0.2787E+01  0.2787E+01  0.1888E+02  0.1888E+02
      7.750  0.1333E+01  0.1333E+01  0.1934E+02  0.1934E+02
      8.021  0.2004E+01  0.2004E+01  0.1989E+02  0.1989E+02
      8.293  0.1080E+01  0.1080E+01  0.2024E+02  0.2024E+02
      8.564  0.1077E+01  0.1077E+01  0.2059E+02  0.2059E+02
      8.835  0.7758E+00  0.7758E+00  0.2080E+02  0.2080E+02
      9.107  0.6452E+00  0.6452E+00  0.2100E+02  0.2100E+02
      9.378  0.7934E+00  0.7934E+00  0.2118E+02  0.2118E+02
      9.649  0.7548E+00  0.7548E+00  0.2139E+02  0.2139E+02
      9.920  0.8215E+00  0.8215E+00  0.2161E+02  0.2161E+02
     10.192  0.9302E+00  0.9302E+00  0.2185E+02  0.2185E+02
     10.463  0.1138E+01  0.1138E+01  0.2212E+02  0.2212E+02
     10.734  0.9987E+00  0.9987E+00  0.2241E+02  0.2241E+02
     11.006  0.9146E+00  0.9146E+00  0.2267E+02  0.2267E+02
     11.277  0.9594E+00  0.9594E+00  0.2292E+02  0.2292E+02
     11.548  0.8665E+00  0.8665E+00  0.2316E+02  0.2316E+02
     11.819  0.9890E+00  0.9890E+00  0.2342E+02  0.2342E+02
     12.091  0.9296E+00  0.9296E+00  0.2369E+02  0.2369E+02
     12.362  0.7978E+00  0.7978E+00  0.2391E+02  0.2391E+02
     12.633  0.9959E+00  0.9959E+00  0.2414E+02  0.2414E+02
     12.905  0.1081E+01  0.1081E+01  0.2443E+02  0.2443E+02
     13.176  0.1162E+01  0.1162E+01  0.2473E+02  0.2473E+02
     13.447  0.1142E+01  0.1142E+01  0.2505E+02  0.2505E+02
     13.718  0.1086E+01  0.1086E+01  0.2535E+02  0.2535E+02
     13.990  0.1109E+01  0.1109E+01  0.2564E+02  0.2564E+02
     14.261  0.8433E+00  0.8433E+00  0.2590E+02  0.2590E+02
     14.532  0.8143E+00  0.8143E+00  0.2612E+02  0.2612E+02
     14.804  0.9140E+00  0.9140E+00  0.2636E+02  0.2636E+02
     15.075  0.9215E+00  0.9215E+00  0.2661E+02  0.2661E+02
     15.346  0.9798E+00  0.9798E+00  0.2690E+02  0.2690E+02
     15.617  0.7145E+00  0.7145E+00  0.2713E+02  0.2713E+02
     15.889  0.5876E+00  0.5876E+00  0.2731E+02  0.2731E+02
     16.160  0.5221E+00  0.5221E+00  0.2746E+02  0.2746E+02
     16.431  0.4245E+00  0.4245E+00  0.2759E+02  0.2759E+02
     16.703  0.3546E+00  0.3546E+00  0.2769E+02  0.2769E+02
     16.974  0.2977E+00  0.2977E+00  0.2778E+02  0.2778E+02
     17.245  0.2322E+00  0.2322E+00  0.2785E+02  0.2785E+02
     17.517  0.1673E+00  0.1673E+00  0.2791E+02  0.2791E+02
     17.788  0.1027E+00  0.1027E+00  0.2794E+02  0.2794E+02
     18.059  0.8185E-01  0.8185E-01  0.2797E+02  0.2797E+02
     18.330  0.5526E-01  0.5526E-01  0.2799E+02  0.2799E+02
     18.602  0.2565E-01  0.2565E-01  0.2800E+02  0.2800E+02
     18.873  0.3707E-02  0.3707E-02  0.2800E+02  0.2800E+02
     19.144  0.0000E+00  0.0000E+00  0.2800E+02  0.2800E+02
     19.416  0.0000E+00  0.0000E+00  0.2800E+02  0.2800E+02
     19.687  0.0000E+00  0.0000E+00  0.2800E+02  0.2800E+02
     19.958  0.0000E+00  0.0000E+00  0.2800E+02  0.2800E+02
     20.229  0.0000E+00  0.0000E+00  0.2800E+02  0.2800E+02
     20.501  0.0000E+00  0.0000E+00  0.2800E+02  0.2800E+02
     20.772  0.0000E+00  0.0000E+00  0.2800E+02  0.2800E+02
     21.043  0.0000E+00  0.0000E+00  0.2800E+02  0.2800E+02
     21.315  0.0000E+00  0.0000E+00  0.2800E+02  0.2800E+02
     21.586  0.0000E+00  0.0000E+00  0.2800E+02  0.2800E+02
     21.857  0.0000E+00  0.0000E+00  0.2800E+02  0.2800E+02
     22.128  0.0000E+00  0.0000E+00  0.2800E+02  0.2800E+02
     22.400  0.0000E+00  0.0000E+00  0.2800E+02  0.2800E+02
     22.671  0.0000E+00  0.0000E+00  0.2800E+02  0.2800E+02
