       N       E                     dE             d eps       ncg     rms          rms(c)
DAV:   1    -0.246489074390E+02   -0.24649E+02   -0.54521E-01  5152   0.943E+00    0.139E-01
DAV:   2    -0.246488375881E+02    0.69851E-04   -0.27216E-03  7224   0.566E-01    0.183E-01
DAV:   3    -0.246487200250E+02    0.11756E-03   -0.15354E-03  6352   0.510E-01    0.695E-02
DAV:   4    -0.246486532379E+02    0.66787E-04   -0.11317E-04  6648   0.120E-01    0.189E-02
DAV:   5    -0.246486538515E+02   -0.61366E-06   -0.82138E-06  5560   0.261E-02    0.363E-03
DAV:   6    -0.246486573021E+02   -0.34506E-05   -0.89960E-07  6392   0.935E-03    0.118E-03
DAV:   7    -0.246486567475E+02    0.55461E-06   -0.77265E-08  5752   0.362E-03    0.256E-04
DAV:   8    -0.246486567110E+02    0.36481E-07   -0.37371E-09  2736   0.705E-04    0.665E-05
DAV:   9    -0.246486567400E+02   -0.28966E-07   -0.92624E-10  2632   0.414E-04    0.177E-05
DAV:  10    -0.246486567329E+02    0.71495E-08   -0.19899E-10  2600   0.164E-04
   1 F= -.24648657E+02 E0= -.24648657E+02  d E =0.000000E+00  mag=    -0.0000
