       N       E                     dE             d eps       ncg     rms          rms(c)
DAV:   1     0.361575019379E+03    0.36158E+03   -0.23832E+04  6352   0.153E+03
DAV:   2    -0.109052511557E+02   -0.37248E+03   -0.36085E+03  5212   0.460E+02
DAV:   3    -0.267740784222E+02   -0.15869E+02   -0.15288E+02  6052   0.107E+02
DAV:   4    -0.271724545906E+02   -0.39838E+00   -0.39681E+00  5928   0.163E+01
DAV:   5    -0.271837961706E+02   -0.11342E-01   -0.11340E-01  5836   0.306E+00    0.259E+01
DAV:   6    -0.488635604228E+02   -0.21680E+02   -0.22496E+02  6332   0.188E+02    0.374E+01
DAV:   7    -0.238587796798E+02    0.25005E+02   -0.64067E+01  6204   0.113E+02    0.114E+01
DAV:   8    -0.225909030181E+02    0.12679E+01   -0.11009E+01  7124   0.350E+01    0.352E+00
DAV:   9    -0.225426385315E+02    0.48264E-01   -0.83186E-01  6592   0.985E+00    0.105E+00
DAV:  10    -0.225493974086E+02   -0.67589E-02   -0.21871E-02  5976   0.146E+00    0.390E-01
DAV:  11    -0.225474732752E+02    0.19241E-02   -0.76639E-03  6948   0.913E-01    0.145E-01
DAV:  12    -0.225474283432E+02    0.44932E-04   -0.76863E-04  6696   0.306E-01    0.541E-02
DAV:  13    -0.225474738106E+02   -0.45467E-04   -0.19085E-04  6680   0.160E-01    0.369E-02
DAV:  14    -0.225474649345E+02    0.88761E-05   -0.31023E-05  6784   0.581E-02    0.149E-02
DAV:  15    -0.225474623108E+02    0.26236E-05   -0.76196E-06  7456   0.275E-02    0.372E-03
DAV:  16    -0.225474619010E+02    0.40981E-06   -0.13618E-06  7424   0.916E-03    0.158E-03
DAV:  17    -0.225474618375E+02    0.63486E-07   -0.11029E-07  5616   0.255E-03    0.129E-03
DAV:  18    -0.225474617867E+02    0.50848E-07   -0.27170E-08  3580   0.167E-03    0.539E-04
DAV:  19    -0.225474617614E+02    0.25332E-07   -0.23318E-08  4292   0.118E-03    0.126E-04
DAV:  20    -0.225474617661E+02   -0.47812E-08   -0.26724E-09  2852   0.547E-04
   1 F= -.22547462E+02 E0= -.22547038E+02  d E =-.225475E+02  mag=    -0.0000
       N       E                     dE             d eps       ncg     rms          rms(c)
DAV:   1    -0.166016055227E+03   -0.14347E+03   -0.23830E+03  5252   0.781E+02    0.865E+01
DAV:   2    -0.505235331064E+02    0.11549E+03   -0.75871E+02  6004   0.262E+02    0.447E+01
DAV:   3    -0.539661409460E+02   -0.34426E+01   -0.33702E+02  5764   0.191E+02    0.424E+01
DAV:   4    -0.254234535257E+02    0.28543E+02   -0.84267E+01  6220   0.108E+02    0.746E+00
DAV:   5    -0.246787402609E+02    0.74471E+00   -0.59578E+00  5776   0.228E+01    0.108E+01
DAV:   6    -0.239318253334E+02    0.74691E+00   -0.73735E+00  6660   0.282E+01    0.551E+00
DAV:   7    -0.235901226747E+02    0.34170E+00   -0.10875E+00  6552   0.103E+01    0.552E-01
DAV:   8    -0.235882684139E+02    0.18543E-02   -0.37396E-02  6264   0.151E+00    0.216E-01
DAV:   9    -0.235863204367E+02    0.19480E-02   -0.92827E-03  5352   0.878E-01    0.150E-01
DAV:  10    -0.235863473733E+02   -0.26937E-04   -0.29864E-03  6988   0.493E-01    0.152E-01
DAV:  11    -0.235861461906E+02    0.20118E-03   -0.55001E-04  6672   0.220E-01    0.329E-02
DAV:  12    -0.235861368379E+02    0.93527E-05   -0.36008E-05  7748   0.440E-02    0.745E-03
DAV:  13    -0.235861365129E+02    0.32495E-06   -0.48832E-06  7204   0.146E-02    0.239E-03
DAV:  14    -0.235861365501E+02   -0.37143E-07   -0.53292E-07  5652   0.478E-03    0.248E-03
DAV:  15    -0.235861364336E+02    0.11648E-06   -0.59157E-08  5740   0.214E-03    0.132E-03
DAV:  16    -0.235861363733E+02    0.60276E-07   -0.43549E-08  4524   0.166E-03    0.231E-04
DAV:  17    -0.235861363664E+02    0.69213E-08   -0.78105E-09  2984   0.657E-04
   2 F= -.23586136E+02 E0= -.23586383E+02  d E =-.103867E+01  mag=    -0.0000
       N       E                     dE             d eps       ncg     rms          rms(c)
DAV:   1    -0.787049758521E+02   -0.55119E+02   -0.53531E+02  6064   0.283E+02    0.811E+01
DAV:   2    -0.177594646954E+03   -0.98890E+02   -0.17566E+03  6472   0.482E+02    0.665E+01
DAV:   3    -0.476488774318E+02    0.12995E+03   -0.41491E+02  6352   0.197E+02    0.300E+01
DAV:   4    -0.313086884093E+02    0.16340E+02   -0.34105E+01  6088   0.605E+01    0.179E+01
DAV:   5    -0.242664166018E+02    0.70423E+01   -0.26667E+01  7128   0.495E+01    0.319E+00
DAV:   6    -0.244569895630E+02   -0.19057E+00   -0.20074E+00  5696   0.830E+00    0.451E+00
DAV:   7    -0.243777649583E+02    0.79225E-01   -0.79825E-02  6976   0.248E+00    0.316E+00
DAV:   8    -0.243126349610E+02    0.65130E-01   -0.10329E+00  6880   0.921E+00    0.246E+00
DAV:   9    -0.242648571155E+02    0.47778E-01   -0.96857E-02  6472   0.329E+00    0.102E+00
DAV:  10    -0.242624313465E+02    0.24258E-02   -0.38469E-03  5872   0.482E-01    0.865E-01
DAV:  11    -0.242559021110E+02    0.65292E-02   -0.31888E-02  6680   0.181E+00    0.158E-01
DAV:  12    -0.242558637331E+02    0.38378E-04   -0.93242E-04  5456   0.226E-01    0.118E-01
DAV:  13    -0.242557368353E+02    0.12690E-03   -0.46187E-04  6672   0.220E-01    0.610E-03
DAV:  14    -0.242557374586E+02   -0.62330E-06   -0.13299E-05  5584   0.311E-02    0.875E-03
DAV:  15    -0.242557371958E+02    0.26279E-06   -0.26366E-06  6528   0.160E-02    0.155E-03
DAV:  16    -0.242557372988E+02   -0.10306E-06   -0.13420E-06  6832   0.115E-02    0.581E-03
DAV:  17    -0.242557371661E+02    0.13272E-06   -0.32745E-07  6472   0.596E-03    0.253E-03
DAV:  18    -0.242557372031E+02   -0.37026E-07   -0.23540E-07  6256   0.470E-03    0.200E-04
DAV:  19    -0.242557371989E+02    0.42010E-08   -0.96323E-09  2808   0.940E-04
   3 F= -.24255737E+02 E0= -.24255534E+02  d E =-.170828E+01  mag=    -0.0000
       N       E                     dE             d eps       ncg     rms          rms(c)
DAV:   1    -0.252777510837E+02   -0.10220E+01   -0.34033E+01  6200   0.177E+02    0.136E+01
DAV:   2    -0.303027921305E+02   -0.50250E+01   -0.48983E+01  6240   0.857E+01    0.195E+01
DAV:   3    -0.245359831323E+02    0.57668E+01   -0.16649E+01  6128   0.592E+01    0.227E+00
DAV:   4    -0.245339470232E+02    0.20361E-02   -0.11741E+00  6896   0.776E+00    0.260E+00
DAV:   5    -0.244893985218E+02    0.44549E-01   -0.42637E-01  6256   0.729E+00    0.103E+00
DAV:   6    -0.244794753818E+02    0.99231E-02   -0.30954E-02  6208   0.211E+00    0.194E-01
DAV:   7    -0.244791750965E+02    0.30029E-03   -0.27075E-03  6600   0.475E-01    0.465E-02
DAV:   8    -0.244791948217E+02   -0.19725E-04   -0.15598E-04  5848   0.146E-01    0.364E-02
DAV:   9    -0.244791817611E+02    0.13061E-04   -0.47647E-05  6576   0.722E-02    0.486E-03
DAV:  10    -0.244791811545E+02    0.60657E-06   -0.26203E-06  5640   0.181E-02    0.169E-03
DAV:  11    -0.244791811201E+02    0.34427E-07   -0.20178E-07  6752   0.384E-03    0.347E-04
DAV:  12    -0.244791810940E+02    0.26107E-07   -0.14092E-08  3896   0.124E-03    0.244E-04
DAV:  13    -0.244791810911E+02    0.29204E-08   -0.53018E-09  2776   0.842E-04
   4 F= -.24479181E+02 E0= -.24479087E+02  d E =-.223444E+00  mag=    -0.0000
       N       E                     dE             d eps       ncg     rms          rms(c)
DAV:   1    -0.248967107015E+02   -0.41753E+00   -0.14953E+01  6432   0.116E+02    0.896E+00
DAV:   2    -0.270380029796E+02   -0.21413E+01   -0.21316E+01  6264   0.570E+01    0.135E+01
DAV:   3    -0.245408263770E+02    0.24972E+01   -0.81544E+00  6232   0.399E+01    0.140E+00
DAV:   4    -0.245351094857E+02    0.57169E-02   -0.32949E-01  5712   0.359E+00    0.117E+00
DAV:   5    -0.245246105702E+02    0.10499E-01   -0.70576E-02  5992   0.304E+00    0.322E-01
DAV:   6    -0.245236035098E+02    0.10071E-02   -0.50003E-03  5920   0.878E-01    0.652E-02
DAV:   7    -0.245236216889E+02   -0.18179E-04   -0.25360E-04  6000   0.158E-01    0.271E-02
DAV:   8    -0.245236134006E+02    0.82883E-05   -0.38310E-05  6728   0.649E-02    0.640E-03
DAV:   9    -0.245236122731E+02    0.11275E-05   -0.36858E-06  7104   0.140E-02    0.207E-03
DAV:  10    -0.245236121215E+02    0.15154E-06   -0.53392E-07  5992   0.676E-03    0.467E-04
DAV:  11    -0.245236120951E+02    0.26489E-07   -0.27395E-08  4808   0.152E-03    0.133E-04
DAV:  12    -0.245236120890E+02    0.60190E-08   -0.24871E-09  2880   0.496E-04
   5 F= -.24523612E+02 E0= -.24524074E+02  d E =-.267875E+00  mag=     0.0000
       N       E                     dE             d eps       ncg     rms          rms(c)
DAV:   1    -0.246124789481E+02   -0.88867E-01   -0.28374E+01  6608   0.190E+02    0.912E+00
DAV:   2    -0.274580943478E+02   -0.28456E+01   -0.31623E+01  6184   0.622E+01    0.174E+01
DAV:   3    -0.246513777184E+02    0.28067E+01   -0.13689E+01  6416   0.409E+01    0.335E+00
DAV:   4    -0.245777496606E+02    0.73628E-01   -0.41570E-01  6040   0.741E+00    0.114E+00
DAV:   5    -0.245655158501E+02    0.12234E-01   -0.21781E-02  7240   0.165E+00    0.386E-01
DAV:   6    -0.245641829981E+02    0.13329E-02   -0.29744E-03  7096   0.616E-01    0.674E-02
DAV:   7    -0.245641750350E+02    0.79631E-05   -0.33391E-04  5448   0.238E-01    0.155E-02
DAV:   8    -0.245641750823E+02   -0.47357E-07   -0.19962E-05  5672   0.518E-02    0.870E-03
DAV:   9    -0.245641743986E+02    0.68376E-06   -0.40503E-06  7000   0.217E-02    0.178E-03
DAV:  10    -0.245641745138E+02   -0.11527E-06   -0.39115E-07  5568   0.410E-03    0.842E-04
DAV:  11    -0.245641745175E+02   -0.36998E-08   -0.18227E-08  4000   0.167E-03
   6 F= -.24564175E+02 E0= -.24563956E+02  d E =-.405624E-01  mag=     0.0000
       N       E                     dE             d eps       ncg     rms          rms(c)
DAV:   1    -0.245725626176E+02   -0.83881E-02   -0.48613E+00  6392   0.816E+01    0.409E+00
DAV:   2    -0.252105669989E+02   -0.63800E+00   -0.58550E+00  6192   0.279E+01    0.806E+00
DAV:   3    -0.245802891405E+02    0.63028E+00   -0.26385E+00  6352   0.192E+01    0.126E+00
DAV:   4    -0.245700999642E+02    0.10189E-01   -0.60415E-02  5736   0.265E+00    0.507E-01
DAV:   5    -0.245677359538E+02    0.23640E-02   -0.49940E-03  7016   0.816E-01    0.119E-01
DAV:   6    -0.245676084647E+02    0.12749E-03   -0.35208E-04  6008   0.201E-01    0.434E-02
DAV:   7    -0.245675997259E+02    0.87388E-05   -0.94033E-05  5896   0.126E-01    0.137E-02
DAV:   8    -0.245675989065E+02    0.81938E-06   -0.81738E-06  5688   0.344E-02    0.225E-03
DAV:   9    -0.245675990358E+02   -0.12927E-06   -0.35312E-07  5752   0.475E-03    0.759E-04
DAV:  10    -0.245675990516E+02   -0.15757E-07   -0.23202E-08  4376   0.124E-03    0.258E-04
DAV:  11    -0.245675990491E+02    0.24465E-08   -0.38079E-09  2784   0.566E-04
   7 F= -.24567599E+02 E0= -.24566995E+02  d E =-.439870E-01  mag=     0.0000
       N       E                     dE             d eps       ncg     rms          rms(c)
DAV:   1    -0.244813929242E+02    0.86206E-01   -0.14435E+01  6264   0.145E+02    0.702E+00
DAV:   2    -0.261599105379E+02   -0.16785E+01   -0.15536E+01  6448   0.481E+01    0.108E+01
DAV:   3    -0.245986962845E+02    0.15612E+01   -0.53936E+00  6168   0.323E+01    0.131E+00
DAV:   4    -0.245878061018E+02    0.10890E-01   -0.17228E-01  5608   0.261E+00    0.865E-01
DAV:   5    -0.245809218469E+02    0.68843E-02   -0.32464E-02  6520   0.215E+00    0.275E-01
DAV:   6    -0.245802509879E+02    0.67086E-03   -0.69564E-03  5800   0.105E+00    0.155E-01
DAV:   7    -0.245800884829E+02    0.16250E-03   -0.99561E-04  5864   0.405E-01    0.329E-02
DAV:   8    -0.245800792612E+02    0.92218E-05   -0.71961E-05  6512   0.104E-01    0.797E-03
DAV:   9    -0.245800786473E+02    0.61390E-06   -0.66784E-06  6648   0.263E-02    0.198E-03
DAV:  10    -0.245800783474E+02    0.29986E-06   -0.60429E-07  6104   0.679E-03    0.625E-04
DAV:  11    -0.245800783365E+02    0.10934E-07   -0.55279E-08  5640   0.272E-03    0.164E-04
DAV:  12    -0.245800783223E+02    0.14144E-07   -0.24082E-09  2848   0.483E-04    0.465E-05
DAV:  13    -0.245800783192E+02    0.31177E-08   -0.58353E-10  2712   0.298E-04
   8 F= -.24580078E+02 E0= -.24579409E+02  d E =-.124793E-01  mag=     0.0000
       N       E                     dE             d eps       ncg     rms          rms(c)
DAV:   1    -0.245793114626E+02    0.76686E-03   -0.11572E-01  6104   0.129E+01    0.587E-01
DAV:   2    -0.245909012110E+02   -0.11590E-01   -0.11276E-01  6160   0.405E+00    0.993E-01
DAV:   3    -0.245804357165E+02    0.10465E-01   -0.43944E-02  6240   0.265E+00    0.165E-01
DAV:   4    -0.245802273866E+02    0.20833E-03   -0.96786E-04  5776   0.332E-01    0.623E-02
DAV:   5    -0.245801841179E+02    0.43269E-04   -0.11202E-04  7064   0.108E-01    0.883E-03
DAV:   6    -0.245801842374E+02   -0.11952E-06   -0.93070E-06  5536   0.365E-02    0.757E-03
DAV:   7    -0.245801841694E+02    0.68075E-07   -0.20722E-06  6248   0.186E-02    0.233E-03
DAV:   8    -0.245801842297E+02   -0.60369E-07   -0.23502E-07  5600   0.669E-03    0.266E-04
DAV:   9    -0.245801842561E+02   -0.26363E-07   -0.90276E-09  2768   0.104E-03    0.683E-05
DAV:  10    -0.245801842549E+02    0.12096E-08   -0.16233E-09  2752   0.499E-04
   9 F= -.24580184E+02 E0= -.24579447E+02  d E =-.125852E-01  mag=    -0.0000
       N       E                     dE             d eps       ncg     rms          rms(c)
DAV:   1    -0.246256112576E+02   -0.45427E-01   -0.98061E-01  6440   0.133E+01    0.193E+00
DAV:   2    -0.246900075009E+02   -0.64396E-01   -0.76873E-01  6376   0.110E+01    0.325E+00
DAV:   3    -0.245890767228E+02    0.10093E+00   -0.41270E-01  6320   0.795E+00    0.668E-01
DAV:   4    -0.245828753900E+02    0.62013E-02   -0.20753E-02  6120   0.151E+00    0.684E-02
DAV:   5    -0.245829352601E+02   -0.59870E-04   -0.13600E-03  5520   0.409E-01    0.281E-02
DAV:   6    -0.245829298261E+02    0.54340E-05   -0.38103E-05  6984   0.650E-02    0.164E-02
DAV:   7    -0.245829309973E+02   -0.11711E-05   -0.85421E-06  6344   0.311E-02    0.325E-03
DAV:   8    -0.245829310224E+02   -0.25166E-07   -0.10844E-06  6016   0.118E-02    0.147E-03
DAV:   9    -0.245829310873E+02   -0.64918E-07   -0.61571E-08  5632   0.270E-03    0.350E-04
DAV:  10    -0.245829310997E+02   -0.12342E-07   -0.58872E-09  2856   0.792E-04    0.716E-05
DAV:  11    -0.245829311042E+02   -0.45648E-08   -0.15521E-09  2712   0.494E-04
  10 F= -.24582931E+02 E0= -.24582606E+02  d E =-.274685E-02  mag=    -0.0000
       N       E                     dE             d eps       ncg     rms          rms(c)
DAV:   1    -0.245934964374E+02   -0.10565E-01   -0.23133E-01  6464   0.648E+00    0.947E-01
DAV:   2    -0.246090081711E+02   -0.15512E-01   -0.18722E-01  6368   0.539E+00    0.156E+00
DAV:   3    -0.245846171093E+02    0.24391E-01   -0.97785E-02  6296   0.390E+00    0.313E-01
DAV:   4    -0.245832557184E+02    0.13614E-02   -0.45383E-03  5896   0.667E-01    0.388E-02
DAV:   5    -0.245832643138E+02   -0.85954E-05   -0.30301E-04  5544   0.199E-01    0.124E-02
DAV:   6    -0.245832631490E+02    0.11648E-05   -0.83544E-06  6336   0.292E-02    0.769E-03
DAV:   7    -0.245832634312E+02   -0.28217E-06   -0.19584E-06  6264   0.163E-02    0.197E-03
DAV:   8    -0.245832634686E+02   -0.37398E-07   -0.37672E-07  5792   0.709E-03    0.881E-04
DAV:   9    -0.245832635072E+02   -0.38541E-07   -0.19952E-08  3352   0.178E-03    0.212E-04
DAV:  10    -0.245832635156E+02   -0.84792E-08   -0.44151E-09  2768   0.549E-04
  11 F= -.24583264E+02 E0= -.24583105E+02  d E =-.307926E-02  mag=     0.0000
       N       E                     dE             d eps       ncg     rms          rms(c)
DAV:   1    -0.245767686780E+02    0.64948E-02   -0.71454E-01  7272   0.280E+01    0.915E-01
DAV:   2    -0.245968549512E+02   -0.20086E-01   -0.26620E-01  5624   0.573E+00    0.959E-01
DAV:   3    -0.245873430451E+02    0.95119E-02   -0.48286E-02  6384   0.282E+00    0.446E-01
DAV:   4    -0.245847336730E+02    0.26094E-02   -0.87971E-03  6168   0.113E+00    0.729E-02
DAV:   5    -0.245846441956E+02    0.89477E-04   -0.89965E-04  5720   0.353E-01    0.224E-02
DAV:   6    -0.245846395581E+02    0.46374E-05   -0.55654E-05  5816   0.558E-02    0.127E-02
DAV:   7    -0.245846398476E+02   -0.28945E-06   -0.13788E-05  5800   0.330E-02    0.469E-03
DAV:   8    -0.245846395140E+02    0.33357E-06   -0.16688E-06  5920   0.144E-02    0.635E-04
DAV:   9    -0.245846394797E+02    0.34363E-07   -0.10755E-07  6136   0.387E-03    0.254E-04
DAV:  10    -0.245846394715E+02    0.81927E-08   -0.40837E-09  3096   0.585E-04
  12 F= -.24584639E+02 E0= -.24584496E+02  d E =-.137596E-02  mag=    -0.0000
       N       E                     dE             d eps       ncg     rms          rms(c)
DAV:   1    -0.245822483115E+02    0.23912E-02   -0.22590E-01  7208   0.158E+01    0.518E-01
DAV:   2    -0.245887852658E+02   -0.65370E-02   -0.87116E-02  5616   0.329E+00    0.542E-01
DAV:   3    -0.245857514704E+02    0.30338E-02   -0.15604E-02  6368   0.160E+00    0.254E-01
DAV:   4    -0.245849018064E+02    0.84966E-03   -0.29100E-03  6192   0.635E-01    0.433E-02
DAV:   5    -0.245848707289E+02    0.31078E-04   -0.29756E-04  5728   0.203E-01    0.132E-02
DAV:   6    -0.245848691732E+02    0.15557E-05   -0.17837E-05  5784   0.310E-02    0.722E-03
DAV:   7    -0.245848691867E+02   -0.13475E-07   -0.42662E-06  5816   0.183E-02    0.249E-03
DAV:   8    -0.245848690689E+02    0.11770E-06   -0.49311E-07  5944   0.777E-03    0.354E-04
DAV:   9    -0.245848690508E+02    0.18193E-07   -0.31371E-08  4520   0.223E-03    0.134E-04
DAV:  10    -0.245848690451E+02    0.56507E-08   -0.27229E-09  2768   0.465E-04
  13 F= -.24584869E+02 E0= -.24584727E+02  d E =-.160553E-02  mag=     0.0000
       N       E                     dE             d eps       ncg     rms          rms(c)
DAV:   1    -0.245807720157E+02    0.40970E-02   -0.46379E-01  6616   0.226E+01    0.831E-01
DAV:   2    -0.245966755973E+02   -0.15904E-01   -0.20937E-01  5752   0.530E+00    0.964E-01
DAV:   3    -0.245875978196E+02    0.90778E-02   -0.48223E-02  6200   0.276E+00    0.392E-01
DAV:   4    -0.245854181147E+02    0.21797E-02   -0.55801E-03  6080   0.920E-01    0.507E-02
DAV:   5    -0.245854120347E+02    0.60800E-05   -0.39268E-04  5544   0.230E-01    0.167E-02
DAV:   6    -0.245854103765E+02    0.16582E-05   -0.25990E-05  6576   0.562E-02    0.810E-03
DAV:   7    -0.245854100232E+02    0.35338E-06   -0.44744E-06  6288   0.246E-02    0.294E-03
DAV:   8    -0.245854100944E+02   -0.71197E-07   -0.31518E-07  5872   0.708E-03    0.674E-04
DAV:   9    -0.245854101166E+02   -0.22282E-07   -0.26286E-08  4400   0.191E-03    0.179E-04
DAV:  10    -0.245854101217E+02   -0.50804E-08   -0.27994E-09  2728   0.528E-04
  14 F= -.24585410E+02 E0= -.24585256E+02  d E =-.541077E-03  mag=    -0.0000
       N       E                     dE             d eps       ncg     rms          rms(c)
DAV:   1    -0.245852819343E+02    0.12818E-03   -0.17796E-02  6784   0.440E+00    0.163E-01
DAV:   2    -0.245858864452E+02   -0.60451E-03   -0.78789E-03  5752   0.103E+00    0.189E-01
DAV:   3    -0.245855248760E+02    0.36157E-03   -0.18388E-03  6224   0.545E-01    0.751E-02
DAV:   4    -0.245854440836E+02    0.80792E-04   -0.20584E-04  6048   0.173E-01    0.866E-03
DAV:   5    -0.245854440156E+02    0.67982E-07   -0.13848E-05  5520   0.427E-02    0.325E-03
DAV:   6    -0.245854439600E+02    0.55632E-07   -0.10124E-06  6512   0.112E-02    0.158E-03
DAV:   7    -0.245854439316E+02    0.28353E-07   -0.14642E-07  6192   0.443E-03    0.461E-04
DAV:   8    -0.245854439239E+02    0.77416E-08   -0.77442E-09  3080   0.831E-04
  15 F= -.24585444E+02 E0= -.24585297E+02  d E =-.574879E-03  mag=     0.0000
       N       E                     dE             d eps       ncg     rms          rms(c)
DAV:   1    -0.245896976363E+02   -0.42537E-02   -0.43126E-02  5832   0.407E+00    0.709E-01
DAV:   2    -0.246049458097E+02   -0.15248E-01   -0.14634E-01  6232   0.467E+00    0.132E+00
DAV:   3    -0.245855141210E+02    0.19432E-01   -0.72273E-02  6216   0.340E+00    0.944E-02
DAV:   4    -0.245855189938E+02   -0.48728E-05   -0.12557E-03  5328   0.243E-01    0.509E-02
DAV:   5    -0.245854991067E+02    0.19887E-04   -0.97293E-05  6664   0.114E-01    0.594E-03
DAV:   6    -0.245854984668E+02    0.63991E-06   -0.48186E-06  5496   0.259E-02    0.342E-03
DAV:   7    -0.245854982749E+02    0.19191E-06   -0.80167E-07  6360   0.116E-02    0.150E-03
DAV:   8    -0.245854981870E+02    0.87915E-07   -0.86693E-08  4888   0.363E-03    0.138E-04
DAV:   9    -0.245854981576E+02    0.29407E-07   -0.29113E-09  2744   0.511E-04    0.390E-05
DAV:  10    -0.245854981558E+02    0.17808E-08   -0.55184E-10  2656   0.214E-04
  16 F= -.24585498E+02 E0= -.24585339E+02  d E =-.542319E-04  mag=    -0.0000
       N       E                     dE             d eps       ncg     rms          rms(c)
DAV:   1    -0.245855324528E+02   -0.34295E-04   -0.34547E-04  5816   0.364E-01    0.631E-02
DAV:   2    -0.245856518970E+02   -0.11944E-03   -0.11602E-03  6240   0.416E-01    0.119E-01
DAV:   3    -0.245854988115E+02    0.15309E-03   -0.58382E-04  6248   0.301E-01    0.913E-03
DAV:   4    -0.245854987258E+02    0.85780E-07   -0.93705E-06  5304   0.225E-02    0.432E-03
DAV:   5    -0.245854986024E+02    0.12332E-06   -0.66290E-07  6704   0.930E-03    0.540E-04
DAV:   6    -0.245854986382E+02   -0.35730E-07   -0.53645E-08  4840   0.291E-03    0.491E-04
DAV:   7    -0.245854986448E+02   -0.66784E-08   -0.44671E-09  2680   0.901E-04
  17 F= -.24585499E+02 E0= -.24585341E+02  d E =-.547210E-04  mag=    -0.0000
       N       E                     dE             d eps       ncg     rms          rms(c)
DAV:   1    -0.245854112788E+02    0.87359E-04   -0.58228E-03  5872   0.276E+00    0.850E-02
DAV:   2    -0.245856767425E+02   -0.26546E-03   -0.30704E-03  5768   0.611E-01    0.105E-01
DAV:   3    -0.245855562034E+02    0.12054E-03   -0.62892E-04  6344   0.318E-01    0.375E-02
DAV:   4    -0.245855409643E+02    0.15239E-04   -0.43568E-05  6056   0.849E-02    0.870E-03
DAV:   5    -0.245855400765E+02    0.88783E-06   -0.42578E-06  6080   0.202E-02    0.376E-03
DAV:   6    -0.245855399995E+02    0.76954E-07   -0.41704E-07  6256   0.708E-03    0.923E-04
DAV:   7    -0.245855400154E+02   -0.15902E-07   -0.37938E-08  5112   0.230E-03    0.267E-04
DAV:   8    -0.245855400211E+02   -0.57371E-08   -0.27000E-09  2688   0.644E-04
  18 F= -.24585540E+02 E0= -.24585368E+02  d E =-.413763E-04  mag=     0.0000
       N       E                     dE             d eps       ncg     rms          rms(c)
DAV:   1    -0.245855260525E+02    0.13963E-04   -0.77832E-04  5872   0.101E+00    0.311E-02
DAV:   2    -0.245855609983E+02   -0.34946E-04   -0.41058E-04  5768   0.224E-01    0.382E-02
DAV:   3    -0.245855451811E+02    0.15817E-04   -0.83999E-05  6344   0.116E-01    0.137E-02
DAV:   4    -0.245855431697E+02    0.20115E-05   -0.58122E-06  6056   0.310E-02    0.318E-03
DAV:   5    -0.245855430786E+02    0.91096E-07   -0.56790E-07  6088   0.739E-03    0.138E-03
DAV:   6    -0.245855430748E+02    0.37935E-08   -0.55553E-08  5312   0.259E-03
  19 F= -.24585543E+02 E0= -.24585365E+02  d E =-.444299E-04  mag=    -0.0000
