 running on   24 total cores
 distrk:  each k-point on   24 cores,    1 groups
 distr:  one band on    6 cores,    4 groups
 using from now: INCAR     
 vasp.5.4.4.18Apr17-6-g9f103f2a35 (build Jan 03 2018 06:08:52) complex          
  
 POSCAR found :  2 types and       5 ions
 scaLAPACK will be used
 WARNING: for PREC=h ENMAX is automatically increase by 25 %
        this was not the case for versions prior to vasp.4.4
 WARNING: for PREC=h ENMAX is automatically increase by 25 %
        this was not the case for versions prior to vasp.4.4
 LDA part: xc-table for Pade appr. of Perdew
 POSCAR, INCAR and KPOINTS ok, starting setup
 FFT: planning ...
 WAVECAR not read
 entering main loop
       N       E                     dE             d eps       ncg     rms          rms(c)
DAV:   1     0.842991877489E+03    0.84299E+03   -0.40968E+04 14584   0.196E+03
DAV:   2     0.193131243384E+02   -0.82368E+03   -0.79376E+03 12816   0.611E+02
DAV:   3    -0.315060680402E+02   -0.50819E+02   -0.47147E+02 13908   0.174E+02
DAV:   4    -0.328518014370E+02   -0.13457E+01   -0.13376E+01 13872   0.277E+01
DAV:   5    -0.328842249609E+02   -0.32424E-01   -0.32420E-01 14280   0.419E+00    0.208E+01
DAV:   6    -0.347389928714E+02   -0.18548E+01   -0.63460E+01 14628   0.997E+01    0.252E+01
DAV:   7    -0.291474909491E+02    0.55915E+01   -0.19593E+01 14524   0.772E+01    0.152E+01
DAV:   8    -0.281221669339E+02    0.10253E+01   -0.46611E+00 14840   0.388E+01    0.456E+00
DAV:   9    -0.281073913517E+02    0.14776E-01   -0.77455E-01 14976   0.121E+01    0.235E+00
DAV:  10    -0.281027371625E+02    0.46542E-02   -0.92867E-02 13872   0.404E+00    0.946E-01
DAV:  11    -0.281036317588E+02   -0.89460E-03   -0.11911E-02 14688   0.126E+00    0.680E-01
DAV:  12    -0.281032064919E+02    0.42527E-03   -0.24141E-03 17580   0.939E-01    0.235E-01
DAV:  13    -0.281034648759E+02   -0.25838E-03   -0.99752E-04 15676   0.342E-01    0.131E-01
DAV:  14    -0.281036074539E+02   -0.14258E-03   -0.19329E-04 15132   0.183E-01    0.105E-01
DAV:  15    -0.281036471215E+02   -0.39668E-04   -0.97963E-05 15696   0.168E-01    0.503E-02
DAV:  16    -0.281036871430E+02   -0.40022E-04   -0.61042E-05 15192   0.932E-02    0.404E-02
DAV:  17    -0.281037071318E+02   -0.19989E-04   -0.38718E-05 15088   0.756E-02    0.243E-02
DAV:  18    -0.281037214177E+02   -0.14286E-04   -0.40447E-05 15692   0.750E-02    0.174E-02
DAV:  19    -0.281037298121E+02   -0.83944E-05   -0.16017E-05 16388   0.489E-02    0.934E-03
DAV:  20    -0.281037335133E+02   -0.37012E-05   -0.19429E-05 15432   0.526E-02    0.449E-03
DAV:  21    -0.281037365207E+02   -0.30075E-05   -0.30640E-06 15240   0.174E-02    0.363E-03
DAV:  22    -0.281037369676E+02   -0.44685E-06   -0.24814E-06 15772   0.200E-02    0.175E-03
DAV:  23    -0.281037373836E+02   -0.41602E-06   -0.76431E-07 16044   0.900E-03    0.102E-03
DAV:  24    -0.281037375103E+02   -0.12671E-06   -0.81604E-08 12184   0.281E-03    0.644E-04
DAV:  25    -0.281037375255E+02   -0.15229E-07   -0.81169E-08 12688   0.404E-03    0.331E-04
DAV:  26    -0.281037375471E+02   -0.21519E-07   -0.12267E-08  7208   0.119E-03    0.236E-04
DAV:  27    -0.281037375501E+02   -0.30886E-08   -0.93895E-09  6624   0.147E-03
   1 F= -.28103738E+02 E0= -.28104161E+02  d E =-.281037E+02  mag=     0.0002
 curvature:   0.00 expect dE= 0.000E+00 dE for cont linesearch  0.000E+00
 trial: gam= 0.00000 g(F)=  0.667E-02 g(S)=  0.209E+00 ort = 0.000E+00 (trialstep = 0.100E+01)
 search vector abs. value=  0.216E+00
 bond charge predicted
       N       E                     dE             d eps       ncg     rms          rms(c)
DAV:   1    -0.428583395104E+02   -0.14755E+02   -0.14408E+02 13248   0.165E+02    0.368E+01
DAV:   2    -0.451710866048E+02   -0.23127E+01   -0.21232E+02 14352   0.145E+02    0.342E+01
DAV:   3    -0.312016571503E+02    0.13969E+02   -0.54576E+01 14840   0.952E+01    0.221E+01
DAV:   4    -0.284367709125E+02    0.27649E+01   -0.10849E+01 13544   0.489E+01    0.533E+00
DAV:   5    -0.281994361005E+02    0.23733E+00   -0.90288E-01 13448   0.104E+01    0.195E+00
DAV:   6    -0.281553196258E+02    0.44116E-01   -0.76928E-02 14936   0.333E+00    0.572E-01
DAV:   7    -0.281535331681E+02    0.17865E-02   -0.14280E-02 13352   0.223E+00    0.430E-01
DAV:   8    -0.281527646571E+02    0.76851E-03   -0.24861E-03 14896   0.118E+00    0.147E-01
DAV:   9    -0.281526731952E+02    0.91462E-04   -0.39502E-04 17008   0.344E-01    0.278E-02
DAV:  10    -0.281526698505E+02    0.33447E-05   -0.49555E-05 14824   0.790E-02    0.782E-03
DAV:  11    -0.281526692322E+02    0.61829E-06   -0.55994E-06 13384   0.329E-02    0.396E-03
DAV:  12    -0.281526694808E+02   -0.24855E-06   -0.40275E-07 15084   0.774E-03    0.517E-04
DAV:  13    -0.281526694731E+02    0.76743E-08   -0.32030E-08 11288   0.152E-03
   2 F= -.28152669E+02 E0= -.28153560E+02  d E =-.489319E-01  mag=    -0.0000
 trial-energy change:   -0.048932  1 .order   -0.054928   -0.215635    0.105780
 step:   0.6453(harm=  0.6709)  dis= 0.00434  next Energy=   -28.171698 (dE=-0.680E-01)
 bond charge predicted
       N       E                     dE             d eps       ncg     rms          rms(c)
DAV:   1    -0.300077194585E+02   -0.18550E+01   -0.17766E+01 13528   0.561E+01    0.134E+01
DAV:   2    -0.306623063013E+02   -0.65459E+00   -0.21084E+01 14464   0.580E+01    0.137E+01
DAV:   3    -0.287423140773E+02    0.19200E+01   -0.68811E+00 14552   0.458E+01    0.110E+01
DAV:   4    -0.282077836458E+02    0.53453E+00   -0.20839E+00 14536   0.261E+01    0.232E+00
DAV:   5    -0.281783617325E+02    0.29422E-01   -0.18820E-01 14624   0.582E+00    0.112E+00
DAV:   6    -0.281712428898E+02    0.71188E-02   -0.30359E-02 14288   0.285E+00    0.296E-01
DAV:   7    -0.281711609378E+02    0.81952E-04   -0.32090E-03 13344   0.948E-01    0.112E-01
DAV:   8    -0.281710906888E+02    0.70249E-04   -0.40851E-04 13880   0.314E-01    0.151E-02
DAV:   9    -0.281710879352E+02    0.27537E-05   -0.34947E-05 13616   0.596E-02    0.794E-03
DAV:  10    -0.281710875516E+02    0.38358E-06   -0.27578E-06 17648   0.197E-02    0.225E-03
DAV:  11    -0.281710875033E+02    0.48309E-07   -0.31770E-07 13492   0.704E-03    0.711E-04
DAV:  12    -0.281710875873E+02   -0.83966E-07   -0.22153E-08  9624   0.251E-03    0.467E-04
DAV:  13    -0.281710875902E+02   -0.29486E-08   -0.53641E-09  6856   0.137E-03
   3 F= -.28171088E+02 E0= -.28171728E+02  d E =-.673500E-01  mag=     0.0000
 curvature:  -0.33 expect dE=-0.847E-02 dE for cont linesearch -0.104E-05
 trial: gam= 0.11397 g(F)=  0.200E-02 g(S)=  0.234E-01 ort = 0.818E-03 (trialstep = 0.929E+00)
 search vector abs. value=  0.284E-01
 bond charge predicted
       N       E                     dE             d eps       ncg     rms          rms(c)
DAV:   1    -0.283523683337E+02   -0.18128E+00   -0.65284E+00 16048   0.484E+01    0.498E+00
DAV:   2    -0.283532175015E+02   -0.84917E-03   -0.24100E+00 14328   0.183E+01    0.338E+00
DAV:   3    -0.282417163709E+02    0.11150E+00   -0.51434E-01 14600   0.105E+01    0.291E+00
DAV:   4    -0.282998185877E+02   -0.58102E-01   -0.37211E-01 14560   0.134E+01    0.470E+00
DAV:   5    -0.281884617264E+02    0.11136E+00   -0.12916E-01 15272   0.729E+00    0.292E-01
DAV:   6    -0.281880516791E+02    0.41005E-03   -0.16615E-02 13304   0.117E+00    0.102E-01
DAV:   7    -0.281879421087E+02    0.10957E-03   -0.70342E-04 16448   0.311E-01    0.508E-02
DAV:   8    -0.281879495225E+02   -0.74138E-05   -0.68924E-05 14112   0.884E-02    0.164E-02
DAV:   9    -0.281879483838E+02    0.11387E-05   -0.76772E-06 15912   0.445E-02    0.717E-03
DAV:  10    -0.281879475575E+02    0.82627E-06   -0.17453E-06 13992   0.158E-02    0.111E-03
DAV:  11    -0.281879475367E+02    0.20776E-07   -0.15246E-07 13408   0.485E-03    0.631E-04
DAV:  12    -0.281879475387E+02   -0.19118E-08   -0.11596E-08  7136   0.145E-03
   4 F= -.28187948E+02 E0= -.28188911E+02  d E =-.168599E-01  mag=     0.0000
 trial-energy change:   -0.016860  1 .order   -0.016710   -0.023679   -0.009741
 step:   1.5165(harm=  1.5784)  dis= 0.00679  next Energy=   -28.191065 (dE=-0.200E-01)
 bond charge predicted
       N       E                     dE             d eps       ncg     rms          rms(c)
DAV:   1    -0.282563751214E+02   -0.68428E-01   -0.26258E+00 16040   0.306E+01    0.309E+00
DAV:   2    -0.282557986051E+02    0.57652E-03   -0.94571E-01 14352   0.117E+01    0.213E+00
DAV:   3    -0.282237232040E+02    0.32075E-01   -0.20367E-01 14612   0.773E+00    0.247E+00
DAV:   4    -0.282190554374E+02    0.46678E-02   -0.14936E-01 14372   0.863E+00    0.219E+00
DAV:   5    -0.281915288581E+02    0.27527E-01   -0.33589E-02 16940   0.360E+00    0.171E-01
DAV:   6    -0.281913045157E+02    0.22434E-03   -0.47625E-03 13248   0.683E-01    0.553E-02
DAV:   7    -0.281912663639E+02    0.38152E-04   -0.16186E-04 16540   0.154E-01    0.285E-02
DAV:   8    -0.281912683188E+02   -0.19550E-05   -0.21368E-05 14356   0.443E-02    0.754E-03
DAV:   9    -0.281912675659E+02    0.75298E-06   -0.24631E-06 13676   0.201E-02    0.260E-03
DAV:  10    -0.281912673698E+02    0.19607E-06   -0.23192E-07 13616   0.505E-03    0.467E-04
DAV:  11    -0.281912673760E+02   -0.61937E-08   -0.29621E-08 10996   0.256E-03
   5 F= -.28191267E+02 E0= -.28192392E+02  d E =-.201798E-01  mag=    -0.0000
 curvature:  -0.87 expect dE=-0.450E-02 dE for cont linesearch -0.243E-04
 trial: gam= 0.18566 g(F)=  0.648E-04 g(S)=  0.511E-02 ort = 0.891E-03 (trialstep = 0.105E+01)
 search vector abs. value=  0.648E-02
 bond charge predicted
       N       E                     dE             d eps       ncg     rms          rms(c)
DAV:   1    -0.282672334681E+02   -0.75966E-01   -0.18476E+00 13688   0.112E+01    0.236E+00
DAV:   2    -0.282276300821E+02    0.39603E-01   -0.21661E-01 14112   0.683E+00    0.175E+00
DAV:   3    -0.282624405389E+02   -0.34810E-01   -0.17086E-01 14544   0.971E+00    0.371E+00
DAV:   4    -0.282047279747E+02    0.57713E-01   -0.12398E-01 14736   0.742E+00    0.939E-01
DAV:   5    -0.281957434365E+02    0.89845E-02   -0.16810E-02 17040   0.172E+00    0.162E-01
DAV:   6    -0.281955212535E+02    0.22218E-03   -0.26138E-03 13680   0.581E-01    0.426E-02
DAV:   7    -0.281955033028E+02    0.17951E-04   -0.97304E-05 14180   0.125E-01    0.201E-02
DAV:   8    -0.281955080187E+02   -0.47159E-05   -0.13444E-05 14896   0.308E-02    0.536E-03
DAV:   9    -0.281955079913E+02    0.27410E-07   -0.97033E-07 13624   0.912E-03    0.129E-03
DAV:  10    -0.281955080130E+02   -0.21690E-07   -0.58143E-08 13096   0.304E-03    0.284E-04
DAV:  11    -0.281955080222E+02   -0.91950E-08   -0.10735E-08  6796   0.148E-03
   6 F= -.28195508E+02 E0= -.28196636E+02  d E =-.424065E-02  mag=     0.0000
 trial-energy change:   -0.004241  1 .order   -0.004249   -0.005585   -0.002913
 step:   2.1877(harm=  2.1877)  dis= 0.00111  next Energy=   -28.197104 (dE=-0.584E-02)
 bond charge predicted
       N       E                     dE             d eps       ncg     rms          rms(c)
DAV:   1    -0.282812743506E+02   -0.85766E-01   -0.21854E+00 13688   0.122E+01    0.256E+00
DAV:   2    -0.282343446115E+02    0.46930E-01   -0.24813E-01 14104   0.730E+00    0.189E+00
DAV:   3    -0.282769494210E+02   -0.42605E-01   -0.19966E-01 14536   0.104E+01    0.404E+00
DAV:   4    -0.282080214350E+02    0.68928E-01   -0.14400E-01 14712   0.797E+00    0.101E+00
DAV:   5    -0.281974846757E+02    0.10537E-01   -0.19842E-02 17000   0.185E+00    0.174E-01
DAV:   6    -0.281972300103E+02    0.25467E-03   -0.30952E-03 13680   0.635E-01    0.462E-02
DAV:   7    -0.281972091143E+02    0.20896E-04   -0.11738E-04 14064   0.136E-01    0.220E-02
DAV:   8    -0.281972145761E+02   -0.54618E-05   -0.15740E-05 14936   0.332E-02    0.588E-03
DAV:   9    -0.281972145323E+02    0.43789E-07   -0.11869E-06 13696   0.101E-02    0.132E-03
DAV:  10    -0.281972145554E+02   -0.23068E-07   -0.69249E-08 13384   0.306E-03    0.272E-04
DAV:  11    -0.281972145648E+02   -0.94151E-08   -0.10404E-08  6776   0.144E-03
   7 F= -.28197215E+02 E0= -.28198346E+02  d E =-.594719E-02  mag=    -0.0000
 curvature:  -1.33 expect dE=-0.128E-02 dE for cont linesearch -0.108E-04
 ZBRENT: extrapolating
 opt :   2.2900  next Energy=   -28.197226 (dE=-0.596E-02)
 bond charge predicted
       N       E                     dE             d eps       ncg     rms          rms(c)
DAV:   1    -0.281978990042E+02   -0.68445E-03   -0.17498E-02 13728   0.108E+00    0.227E-01
DAV:   2    -0.281975114036E+02    0.38760E-03   -0.19183E-03 14040   0.654E-01    0.157E-01
DAV:   3    -0.281977465280E+02   -0.23512E-03   -0.13518E-03 14504   0.936E-01    0.324E-01
DAV:   4    -0.281973324091E+02    0.41412E-03   -0.10182E-03 14712   0.910E-01    0.109E-01
DAV:   5    -0.281972305675E+02    0.10184E-03   -0.16437E-04 17360   0.216E-01    0.148E-02
DAV:   6    -0.281972291312E+02    0.14363E-05   -0.28166E-05 13560   0.584E-02    0.400E-03
DAV:   7    -0.281972291549E+02   -0.23707E-07   -0.84191E-07 14392   0.118E-02    0.200E-03
DAV:   8    -0.281972292758E+02   -0.12095E-06   -0.13378E-07 14040   0.329E-03    0.537E-04
DAV:   9    -0.281972292863E+02   -0.10456E-07   -0.85042E-09  6768   0.104E-03    0.144E-04
DAV:  10    -0.281972292897E+02   -0.34452E-08   -0.20641E-09  6520   0.595E-04
   8 F= -.28197229E+02 E0= -.28198361E+02  d E =-.596191E-02  mag=    -0.0000
 curvature:  -1.45 expect dE=-0.152E-02 dE for cont linesearch -0.122E-07
 trial: gam= 0.23954 g(F)=  0.184E-03 g(S)=  0.868E-03 ort = 0.739E-05 (trialstep = 0.130E+01)
 search vector abs. value=  0.143E-02
 bond charge predicted
       N       E                     dE             d eps       ncg     rms          rms(c)
DAV:   1    -0.282996440277E+02   -0.10241E+00   -0.12213E+00 14320   0.199E+01    0.327E+00
DAV:   2    -0.283456253380E+02   -0.45981E-01   -0.12208E+00 14544   0.148E+01    0.370E+00
DAV:   3    -0.283207672956E+02    0.24858E-01   -0.54620E-01 14608   0.156E+01    0.519E+00
DAV:   4    -0.281986277423E+02    0.12214E+00   -0.24379E-01 14512   0.100E+01    0.477E-01
DAV:   5    -0.281982187501E+02    0.40899E-03   -0.30003E-02 13448   0.161E+00    0.313E-01
DAV:   6    -0.281973807084E+02    0.83804E-03   -0.27676E-03 13640   0.677E-01    0.666E-02
DAV:   7    -0.281973619742E+02    0.18734E-04   -0.16070E-04 14600   0.214E-01    0.239E-02
DAV:   8    -0.281973604403E+02    0.15339E-05   -0.20553E-05 13920   0.806E-02    0.925E-03
DAV:   9    -0.281973599463E+02    0.49404E-06   -0.24406E-06 15384   0.261E-02    0.186E-03
DAV:  10    -0.281973598319E+02    0.11439E-06   -0.31582E-07 15360   0.587E-03    0.111E-03
DAV:  11    -0.281973598283E+02    0.35634E-08   -0.86413E-08 12128   0.354E-03
   9 F= -.28197360E+02 E0= -.28198484E+02  d E =-.130539E-03  mag=     0.0000
 trial-energy change:   -0.000131  1 .order   -0.000109   -0.001365    0.001147
 step:   0.7202(harm=  0.7039)  dis= 0.00100  next Energy=   -28.197612 (dE=-0.383E-03)
 bond charge predicted
       N       E                     dE             d eps       ncg     rms          rms(c)
DAV:   1    -0.282179424618E+02   -0.20583E-01   -0.24167E-01 14040   0.879E+00    0.146E+00
DAV:   2    -0.282274364653E+02   -0.94940E-02   -0.25243E-01 14552   0.653E+00    0.168E+00
DAV:   3    -0.282254253920E+02    0.20111E-02   -0.11833E-01 14608   0.819E+00    0.249E+00
DAV:   4    -0.281978967441E+02    0.27529E-01   -0.51263E-02 14216   0.479E+00    0.210E-01
DAV:   5    -0.281977677170E+02    0.12903E-03   -0.60985E-03 13432   0.683E-01    0.137E-01
DAV:   6    -0.281976037729E+02    0.16394E-03   -0.51481E-04 13856   0.260E-01    0.216E-02
DAV:   7    -0.281976057679E+02   -0.19950E-05   -0.29172E-05 13864   0.718E-02    0.103E-02
DAV:   8    -0.281976067690E+02   -0.10011E-05   -0.36657E-06 14360   0.242E-02    0.341E-03
DAV:   9    -0.281976066971E+02    0.71948E-07   -0.44952E-07 14048   0.871E-03    0.606E-04
DAV:  10    -0.281976067380E+02   -0.40931E-07   -0.20327E-08  9848   0.130E-03    0.165E-04
DAV:  11    -0.281976067263E+02    0.11687E-07   -0.50130E-09  6688   0.895E-04    0.896E-05
DAV:  12    -0.281976067234E+02    0.29104E-08   -0.11584E-09  6600   0.358E-04
  10 F= -.28197607E+02 E0= -.28198734E+02  d E =-.377434E-03  mag=    -0.0000
 curvature:  -0.48 expect dE=-0.573E-04 dE for cont linesearch -0.119E-08
 trial: gam= 0.12151 g(F)=  0.719E-04 g(S)=  0.483E-04 ort = 0.189E-05 (trialstep = 0.118E+01)
 search vector abs. value=  0.142E-03
 bond charge predicted
       N       E                     dE             d eps       ncg     rms          rms(c)
DAV:   1    -0.281942849500E+02    0.33218E-02   -0.72183E-02 15504   0.104E+01    0.259E-01
DAV:   2    -0.281982582545E+02   -0.39733E-02   -0.43888E-02 13368   0.193E+00    0.300E-01
DAV:   3    -0.281988070147E+02   -0.54876E-03   -0.44557E-03 14320   0.167E+00    0.471E-01
DAV:   4    -0.281977702682E+02    0.10367E-02   -0.15959E-03 14672   0.109E+00    0.823E-02
DAV:   5    -0.281976913759E+02    0.78892E-04   -0.29173E-04 16056   0.192E-01    0.270E-02
DAV:   6    -0.281976856183E+02    0.57576E-05   -0.37586E-05 14360   0.801E-02    0.109E-02
DAV:   7    -0.281976854035E+02    0.21489E-06   -0.41014E-06 15600   0.285E-02    0.313E-03
DAV:   8    -0.281976857450E+02   -0.34160E-06   -0.85017E-07 13608   0.122E-02    0.188E-03
DAV:   9    -0.281976857918E+02   -0.46732E-07   -0.72896E-08 14056   0.471E-03    0.267E-04
DAV:  10    -0.281976857975E+02   -0.57207E-08   -0.65708E-09  6688   0.791E-04
  11 F= -.28197686E+02 E0= -.28198815E+02  d E =-.790741E-04  mag=     0.0000
 trial-energy change:   -0.000079  1 .order   -0.000079   -0.000142   -0.000016
 step:   1.3259(harm=  1.3259)  dis= 0.00141  next Energy=   -28.197687 (dE=-0.799E-04)
 bond charge predicted
       N       E                     dE             d eps       ncg     rms          rms(c)
DAV:   1    -0.281976351778E+02    0.50614E-04   -0.10988E-03 15544   0.128E+00    0.321E-02
DAV:   2    -0.281976948298E+02   -0.59652E-04   -0.66947E-04 13368   0.238E-01    0.368E-02
DAV:   3    -0.281977034689E+02   -0.86392E-05   -0.67190E-05 14328   0.211E-01    0.583E-02
DAV:   4    -0.281976878524E+02    0.15616E-04   -0.25026E-05 14696   0.133E-01    0.101E-02
DAV:   5    -0.281976867507E+02    0.11018E-05   -0.43595E-06 16016   0.236E-02    0.329E-03
DAV:   6    -0.281976867729E+02   -0.22215E-07   -0.57016E-07 14440   0.980E-03    0.134E-03
DAV:   7    -0.281976868270E+02   -0.54100E-07   -0.58037E-08 12496   0.349E-03    0.388E-04
DAV:   8    -0.281976868626E+02   -0.35663E-07   -0.14220E-08  6776   0.169E-03    0.236E-04
DAV:   9    -0.281976868685E+02   -0.58244E-08   -0.32116E-09  6448   0.758E-04
  12 F= -.28197687E+02 E0= -.28198816E+02  d E =-.801451E-04  mag=     0.0000
 curvature:  -0.78 expect dE=-0.251E-05 dE for cont linesearch -0.680E-08
 trial: gam= 0.01597 g(F)=  0.308E-05 g(S)=  0.145E-06 ort = 0.111E-05 (trialstep = 0.121E+01)
 search vector abs. value=  0.329E-05
 reached required accuracy - stopping structural energy minimisation
 writing wavefunctions
