   6   6   0   0
  0.1264981E+02  0.4777788E-09  0.4777788E-09  0.6536155E-09  0.5000000E-15
  1.000000000000000E-004
  CAR 
 unknown system                          
     23.89654951    -58.55591379  301      8.67786042      1.00000000
    -58.556  0.0000E+00  0.0000E+00  0.0000E+00  0.0000E+00
    -58.281  0.0000E+00  0.0000E+00  0.0000E+00  0.0000E+00
    -58.006  0.0000E+00  0.0000E+00  0.0000E+00  0.0000E+00
    -57.731  0.0000E+00  0.0000E+00  0.0000E+00  0.0000E+00
    -57.457  0.0000E+00  0.0000E+00  0.0000E+00  0.0000E+00
    -57.182  0.0000E+00  0.0000E+00  0.0000E+00  0.0000E+00
    -56.907  0.0000E+00  0.0000E+00  0.0000E+00  0.0000E+00
    -56.632  0.0000E+00  0.0000E+00  0.0000E+00  0.0000E+00
    -56.357  0.0000E+00  0.0000E+00  0.0000E+00  0.0000E+00
    -56.082  0.0000E+00  0.0000E+00  0.0000E+00  0.0000E+00
    -55.807  0.0000E+00  0.0000E+00  0.0000E+00  0.0000E+00
    -55.533  0.0000E+00  0.0000E+00  0.0000E+00  0.0000E+00
    -55.258  0.0000E+00  0.0000E+00  0.0000E+00  0.0000E+00
    -54.983  0.0000E+00  0.0000E+00  0.0000E+00  0.0000E+00
    -54.708  0.9538E+02  0.9538E+02  0.4920E+01  0.4920E+01
    -54.433  0.0000E+00  0.0000E+00  0.9000E+01  0.9000E+01
    -54.158  0.0000E+00  0.0000E+00  0.9000E+01  0.9000E+01
    -53.884  0.0000E+00  0.0000E+00  0.9000E+01  0.9000E+01
    -53.609  0.0000E+00  0.0000E+00  0.9000E+01  0.9000E+01
    -53.334  0.0000E+00  0.0000E+00  0.9000E+01  0.9000E+01
    -53.059  0.0000E+00  0.0000E+00  0.9000E+01  0.9000E+01
    -52.784  0.0000E+00  0.0000E+00  0.9000E+01  0.9000E+01
    -52.509  0.0000E+00  0.0000E+00  0.9000E+01  0.9000E+01
    -52.235  0.0000E+00  0.0000E+00  0.9000E+01  0.9000E+01
    -51.960  0.0000E+00  0.0000E+00  0.9000E+01  0.9000E+01
    -51.685  0.0000E+00  0.0000E+00  0.9000E+01  0.9000E+01
    -51.410  0.0000E+00  0.0000E+00  0.9000E+01  0.9000E+01
    -51.135  0.0000E+00  0.0000E+00  0.9000E+01  0.9000E+01
    -50.860  0.0000E+00  0.0000E+00  0.9000E+01  0.9000E+01
    -50.586  0.0000E+00  0.0000E+00  0.9000E+01  0.9000E+01
    -50.311  0.0000E+00  0.0000E+00  0.9000E+01  0.9000E+01
    -50.036  0.0000E+00  0.0000E+00  0.9000E+01  0.9000E+01
    -49.761  0.0000E+00  0.0000E+00  0.9000E+01  0.9000E+01
    -49.486  0.0000E+00  0.0000E+00  0.9000E+01  0.9000E+01
    -49.211  0.0000E+00  0.0000E+00  0.9000E+01  0.9000E+01
    -48.936  0.0000E+00  0.0000E+00  0.9000E+01  0.9000E+01
    -48.662  0.0000E+00  0.0000E+00  0.9000E+01  0.9000E+01
    -48.387  0.0000E+00  0.0000E+00  0.9000E+01  0.9000E+01
    -48.112  0.0000E+00  0.0000E+00  0.9000E+01  0.9000E+01
    -47.837  0.0000E+00  0.0000E+00  0.9000E+01  0.9000E+01
    -47.562  0.0000E+00  0.0000E+00  0.9000E+01  0.9000E+01
    -47.287  0.0000E+00  0.0000E+00  0.9000E+01  0.9000E+01
    -47.013  0.0000E+00  0.0000E+00  0.9000E+01  0.9000E+01
    -46.738  0.0000E+00  0.0000E+00  0.9000E+01  0.9000E+01
    -46.463  0.0000E+00  0.0000E+00  0.9000E+01  0.9000E+01
    -46.188  0.0000E+00  0.0000E+00  0.9000E+01  0.9000E+01
    -45.913  0.0000E+00  0.0000E+00  0.9000E+01  0.9000E+01
    -45.638  0.0000E+00  0.0000E+00  0.9000E+01  0.9000E+01
    -45.364  0.0000E+00  0.0000E+00  0.9000E+01  0.9000E+01
    -45.089  0.0000E+00  0.0000E+00  0.9000E+01  0.9000E+01
    -44.814  0.0000E+00  0.0000E+00  0.9000E+01  0.9000E+01
    -44.539  0.0000E+00  0.0000E+00  0.9000E+01  0.9000E+01
    -44.264  0.0000E+00  0.0000E+00  0.9000E+01  0.9000E+01
    -43.989  0.0000E+00  0.0000E+00  0.9000E+01  0.9000E+01
    -43.714  0.0000E+00  0.0000E+00  0.9000E+01  0.9000E+01
    -43.440  0.0000E+00  0.0000E+00  0.9000E+01  0.9000E+01
    -43.165  0.0000E+00  0.0000E+00  0.9000E+01  0.9000E+01
    -42.890  0.0000E+00  0.0000E+00  0.9000E+01  0.9000E+01
    -42.615  0.0000E+00  0.0000E+00  0.9000E+01  0.9000E+01
    -42.340  0.0000E+00  0.0000E+00  0.9000E+01  0.9000E+01
    -42.065  0.0000E+00  0.0000E+00  0.9000E+01  0.9000E+01
    -41.791  0.0000E+00  0.0000E+00  0.9000E+01  0.9000E+01
    -41.516  0.0000E+00  0.0000E+00  0.9000E+01  0.9000E+01
    -41.241  0.0000E+00  0.0000E+00  0.9000E+01  0.9000E+01
    -40.966  0.0000E+00  0.0000E+00  0.9000E+01  0.9000E+01
    -40.691  0.0000E+00  0.0000E+00  0.9000E+01  0.9000E+01
    -40.416  0.0000E+00  0.0000E+00  0.9000E+01  0.9000E+01
    -40.142  0.0000E+00  0.0000E+00  0.9000E+01  0.9000E+01
    -39.867  0.0000E+00  0.0000E+00  0.9000E+01  0.9000E+01
    -39.592  0.0000E+00  0.0000E+00  0.9000E+01  0.9000E+01
    -39.317  0.0000E+00  0.0000E+00  0.9000E+01  0.9000E+01
    -39.042  0.0000E+00  0.0000E+00  0.9000E+01  0.9000E+01
    -38.767  0.0000E+00  0.0000E+00  0.9000E+01  0.9000E+01
    -38.492  0.0000E+00  0.0000E+00  0.9000E+01  0.9000E+01
    -38.218  0.0000E+00  0.0000E+00  0.9000E+01  0.9000E+01
    -37.943  0.0000E+00  0.0000E+00  0.9000E+01  0.9000E+01
    -37.668  0.0000E+00  0.0000E+00  0.9000E+01  0.9000E+01
    -37.393  0.0000E+00  0.0000E+00  0.9000E+01  0.9000E+01
    -37.118  0.0000E+00  0.0000E+00  0.9000E+01  0.9000E+01
    -36.843  0.0000E+00  0.0000E+00  0.9000E+01  0.9000E+01
    -36.569  0.0000E+00  0.0000E+00  0.9000E+01  0.9000E+01
    -36.294  0.0000E+00  0.0000E+00  0.9000E+01  0.9000E+01
    -36.019  0.0000E+00  0.0000E+00  0.9000E+01  0.9000E+01
    -35.744  0.0000E+00  0.0000E+00  0.9000E+01  0.9000E+01
    -35.469  0.0000E+00  0.0000E+00  0.9000E+01  0.9000E+01
    -35.194  0.0000E+00  0.0000E+00  0.9000E+01  0.9000E+01
    -34.920  0.0000E+00  0.0000E+00  0.9000E+01  0.9000E+01
    -34.645  0.0000E+00  0.0000E+00  0.9000E+01  0.9000E+01
    -34.370  0.0000E+00  0.0000E+00  0.9000E+01  0.9000E+01
    -34.095  0.0000E+00  0.0000E+00  0.9000E+01  0.9000E+01
    -33.820  0.0000E+00  0.0000E+00  0.9000E+01  0.9000E+01
    -33.545  0.0000E+00  0.0000E+00  0.9000E+01  0.9000E+01
    -33.270  0.0000E+00  0.0000E+00  0.9000E+01  0.9000E+01
    -32.996  0.0000E+00  0.0000E+00  0.9000E+01  0.9000E+01
    -32.721  0.0000E+00  0.0000E+00  0.9000E+01  0.9000E+01
    -32.446  0.0000E+00  0.0000E+00  0.9000E+01  0.9000E+01
    -32.171  0.0000E+00  0.0000E+00  0.9000E+01  0.9000E+01
    -31.896  0.0000E+00  0.0000E+00  0.9000E+01  0.9000E+01
    -31.621  0.0000E+00  0.0000E+00  0.9000E+01  0.9000E+01
    -31.347  0.0000E+00  0.0000E+00  0.9000E+01  0.9000E+01
    -31.072  0.0000E+00  0.0000E+00  0.9000E+01  0.9000E+01
    -30.797  0.0000E+00  0.0000E+00  0.9000E+01  0.9000E+01
    -30.522  0.0000E+00  0.0000E+00  0.9000E+01  0.9000E+01
    -30.247  0.0000E+00  0.0000E+00  0.9000E+01  0.9000E+01
    -29.972  0.0000E+00  0.0000E+00  0.9000E+01  0.9000E+01
    -29.698  0.0000E+00  0.0000E+00  0.9000E+01  0.9000E+01
    -29.423  0.0000E+00  0.0000E+00  0.9000E+01  0.9000E+01
    -29.148  0.0000E+00  0.0000E+00  0.9000E+01  0.9000E+01
    -28.873  0.0000E+00  0.0000E+00  0.9000E+01  0.9000E+01
    -28.598  0.0000E+00  0.0000E+00  0.9000E+01  0.9000E+01
    -28.323  0.0000E+00  0.0000E+00  0.9000E+01  0.9000E+01
    -28.049  0.0000E+00  0.0000E+00  0.9000E+01  0.9000E+01
    -27.774  0.0000E+00  0.0000E+00  0.9000E+01  0.9000E+01
    -27.499  0.0000E+00  0.0000E+00  0.9000E+01  0.9000E+01
    -27.224  0.0000E+00  0.0000E+00  0.9000E+01  0.9000E+01
    -26.949  0.0000E+00  0.0000E+00  0.9000E+01  0.9000E+01
    -26.674  0.0000E+00  0.0000E+00  0.9000E+01  0.9000E+01
    -26.399  0.0000E+00  0.0000E+00  0.9000E+01  0.9000E+01
    -26.125  0.0000E+00  0.0000E+00  0.9000E+01  0.9000E+01
    -25.850  0.0000E+00  0.0000E+00  0.9000E+01  0.9000E+01
    -25.575  0.0000E+00  0.0000E+00  0.9000E+01  0.9000E+01
    -25.300  0.0000E+00  0.0000E+00  0.9000E+01  0.9000E+01
    -25.025  0.0000E+00  0.0000E+00  0.9000E+01  0.9000E+01
    -24.750  0.0000E+00  0.0000E+00  0.9000E+01  0.9000E+01
    -24.476  0.0000E+00  0.0000E+00  0.9000E+01  0.9000E+01
    -24.201  0.0000E+00  0.0000E+00  0.9000E+01  0.9000E+01
    -23.926  0.0000E+00  0.0000E+00  0.9000E+01  0.9000E+01
    -23.651  0.0000E+00  0.0000E+00  0.9000E+01  0.9000E+01
    -23.376  0.0000E+00  0.0000E+00  0.9000E+01  0.9000E+01
    -23.101  0.0000E+00  0.0000E+00  0.9000E+01  0.9000E+01
    -22.827  0.0000E+00  0.0000E+00  0.9000E+01  0.9000E+01
    -22.552  0.0000E+00  0.0000E+00  0.9000E+01  0.9000E+01
    -22.277  0.0000E+00  0.0000E+00  0.9000E+01  0.9000E+01
    -22.002  0.0000E+00  0.0000E+00  0.9000E+01  0.9000E+01
    -21.727  0.0000E+00  0.0000E+00  0.9000E+01  0.9000E+01
    -21.452  0.0000E+00  0.0000E+00  0.9000E+01  0.9000E+01
    -21.177  0.0000E+00  0.0000E+00  0.9000E+01  0.9000E+01
    -20.903  0.0000E+00  0.0000E+00  0.9000E+01  0.9000E+01
    -20.628  0.0000E+00  0.0000E+00  0.9000E+01  0.9000E+01
    -20.353  0.0000E+00  0.0000E+00  0.9000E+01  0.9000E+01
    -20.078  0.0000E+00  0.0000E+00  0.9000E+01  0.9000E+01
    -19.803  0.0000E+00  0.0000E+00  0.9000E+01  0.9000E+01
    -19.528  0.0000E+00  0.0000E+00  0.9000E+01  0.9000E+01
    -19.254  0.0000E+00  0.0000E+00  0.9000E+01  0.9000E+01
    -18.979  0.0000E+00  0.0000E+00  0.9000E+01  0.9000E+01
    -18.704  0.0000E+00  0.0000E+00  0.9000E+01  0.9000E+01
    -18.429  0.0000E+00  0.0000E+00  0.9000E+01  0.9000E+01
    -18.154  0.0000E+00  0.0000E+00  0.9000E+01  0.9000E+01
    -17.879  0.0000E+00  0.0000E+00  0.9000E+01  0.9000E+01
    -17.605  0.0000E+00  0.0000E+00  0.9000E+01  0.9000E+01
    -17.330  0.0000E+00  0.0000E+00  0.9000E+01  0.9000E+01
    -17.055  0.0000E+00  0.0000E+00  0.9000E+01  0.9000E+01
    -16.780  0.0000E+00  0.0000E+00  0.9000E+01  0.9000E+01
    -16.505  0.0000E+00  0.0000E+00  0.9000E+01  0.9000E+01
    -16.230  0.0000E+00  0.0000E+00  0.9000E+01  0.9000E+01
    -15.955  0.0000E+00  0.0000E+00  0.9000E+01  0.9000E+01
    -15.681  0.0000E+00  0.0000E+00  0.9000E+01  0.9000E+01
    -15.406  0.0000E+00  0.0000E+00  0.9000E+01  0.9000E+01
    -15.131  0.0000E+00  0.0000E+00  0.9000E+01  0.9000E+01
    -14.856  0.0000E+00  0.0000E+00  0.9000E+01  0.9000E+01
    -14.581  0.0000E+00  0.0000E+00  0.9000E+01  0.9000E+01
    -14.306  0.0000E+00  0.0000E+00  0.9000E+01  0.9000E+01
    -14.032  0.0000E+00  0.0000E+00  0.9000E+01  0.9000E+01
    -13.757  0.0000E+00  0.0000E+00  0.9000E+01  0.9000E+01
    -13.482  0.0000E+00  0.0000E+00  0.9000E+01  0.9000E+01
    -13.207  0.0000E+00  0.0000E+00  0.9000E+01  0.9000E+01
    -12.932  0.0000E+00  0.0000E+00  0.9000E+01  0.9000E+01
    -12.657  0.0000E+00  0.0000E+00  0.9000E+01  0.9000E+01
    -12.383  0.0000E+00  0.0000E+00  0.9000E+01  0.9000E+01
    -12.108  0.0000E+00  0.0000E+00  0.9000E+01  0.9000E+01
    -11.833  0.0000E+00  0.0000E+00  0.9000E+01  0.9000E+01
    -11.558  0.0000E+00  0.0000E+00  0.9000E+01  0.9000E+01
    -11.283  0.0000E+00  0.0000E+00  0.9000E+01  0.9000E+01
    -11.008  0.0000E+00  0.0000E+00  0.9000E+01  0.9000E+01
    -10.733  0.0000E+00  0.0000E+00  0.9000E+01  0.9000E+01
    -10.459  0.0000E+00  0.0000E+00  0.9000E+01  0.9000E+01
    -10.184  0.0000E+00  0.0000E+00  0.9000E+01  0.9000E+01
     -9.909  0.0000E+00  0.0000E+00  0.9000E+01  0.9000E+01
     -9.634  0.0000E+00  0.0000E+00  0.9000E+01  0.9000E+01
     -9.359  0.0000E+00  0.0000E+00  0.9000E+01  0.9000E+01
     -9.084  0.0000E+00  0.0000E+00  0.9000E+01  0.9000E+01
     -8.810  0.0000E+00  0.0000E+00  0.9000E+01  0.9000E+01
     -8.535  0.0000E+00  0.0000E+00  0.9000E+01  0.9000E+01
     -8.260  0.0000E+00  0.0000E+00  0.9000E+01  0.9000E+01
     -7.985  0.0000E+00  0.0000E+00  0.9000E+01  0.9000E+01
     -7.710  0.0000E+00  0.0000E+00  0.9000E+01  0.9000E+01
     -7.435  0.0000E+00  0.0000E+00  0.9000E+01  0.9000E+01
     -7.161  0.0000E+00  0.0000E+00  0.9000E+01  0.9000E+01
     -6.886  0.0000E+00  0.0000E+00  0.9000E+01  0.9000E+01
     -6.611  0.0000E+00  0.0000E+00  0.9000E+01  0.9000E+01
     -6.336  0.0000E+00  0.0000E+00  0.9000E+01  0.9000E+01
     -6.061  0.0000E+00  0.0000E+00  0.9000E+01  0.9000E+01
     -5.786  0.0000E+00  0.0000E+00  0.9000E+01  0.9000E+01
     -5.511  0.0000E+00  0.0000E+00  0.9000E+01  0.9000E+01
     -5.237  0.0000E+00  0.0000E+00  0.9000E+01  0.9000E+01
     -4.962  0.0000E+00  0.0000E+00  0.9000E+01  0.9000E+01
     -4.687  0.0000E+00  0.0000E+00  0.9000E+01  0.9000E+01
     -4.412  0.0000E+00  0.0000E+00  0.9000E+01  0.9000E+01
     -4.137  0.0000E+00  0.0000E+00  0.9000E+01  0.9000E+01
     -3.862  0.0000E+00  0.0000E+00  0.9000E+01  0.9000E+01
     -3.588  0.0000E+00  0.0000E+00  0.9000E+01  0.9000E+01
     -3.313  0.0000E+00  0.0000E+00  0.9000E+01  0.9000E+01
     -3.038  0.0000E+00  0.0000E+00  0.9000E+01  0.9000E+01
     -2.763  0.0000E+00  0.0000E+00  0.9000E+01  0.9000E+01
     -2.488  0.0000E+00  0.0000E+00  0.9000E+01  0.9000E+01
     -2.213  0.3748E-02  0.3748E-02  0.9000E+01  0.9000E+01
     -1.939  0.1281E+00  0.1281E+00  0.9017E+01  0.9017E+01
     -1.664  0.2408E+00  0.2408E+00  0.9068E+01  0.9068E+01
     -1.389  0.2779E+00  0.2779E+00  0.9143E+01  0.9143E+01
     -1.114  0.2693E+00  0.2693E+00  0.9219E+01  0.9219E+01
     -0.839  0.2985E+00  0.2985E+00  0.9295E+01  0.9295E+01
     -0.564  0.3294E+00  0.3294E+00  0.9383E+01  0.9383E+01
     -0.290  0.2929E+00  0.2929E+00  0.9469E+01  0.9469E+01
     -0.015  0.2914E+00  0.2914E+00  0.9547E+01  0.9547E+01
      0.260  0.4800E+00  0.4800E+00  0.9643E+01  0.9643E+01
      0.535  0.4632E+00  0.4632E+00  0.9778E+01  0.9778E+01
      0.810  0.4392E+00  0.4392E+00  0.9902E+01  0.9902E+01
      1.085  0.5076E+00  0.5076E+00  0.1003E+02  0.1003E+02
      1.360  0.6559E+00  0.6559E+00  0.1019E+02  0.1019E+02
      1.634  0.8141E+00  0.8141E+00  0.1039E+02  0.1039E+02
      1.909  0.7116E+00  0.7116E+00  0.1061E+02  0.1061E+02
      2.184  0.5663E+00  0.5663E+00  0.1078E+02  0.1078E+02
      2.459  0.5106E+00  0.5106E+00  0.1093E+02  0.1093E+02
      2.734  0.5383E+00  0.5383E+00  0.1107E+02  0.1107E+02
      3.009  0.7473E+00  0.7473E+00  0.1125E+02  0.1125E+02
      3.283  0.9103E+00  0.9103E+00  0.1148E+02  0.1148E+02
      3.558  0.9512E+00  0.9512E+00  0.1174E+02  0.1174E+02
      3.833  0.1044E+01  0.1044E+01  0.1202E+02  0.1202E+02
      4.108  0.1771E+01  0.1771E+01  0.1242E+02  0.1242E+02
      4.383  0.1285E+01  0.1285E+01  0.1282E+02  0.1282E+02
      4.658  0.1164E+01  0.1164E+01  0.1315E+02  0.1315E+02
      4.932  0.1907E+01  0.1907E+01  0.1355E+02  0.1355E+02
      5.207  0.1340E+01  0.1340E+01  0.1393E+02  0.1393E+02
      5.482  0.5061E+01  0.5061E+01  0.1473E+02  0.1473E+02
      5.757  0.4900E+01  0.4900E+01  0.1597E+02  0.1597E+02
      6.032  0.5624E+01  0.5624E+01  0.1726E+02  0.1726E+02
      6.307  0.7038E+01  0.7038E+01  0.1882E+02  0.1882E+02
      6.582  0.5132E+01  0.5132E+01  0.2021E+02  0.2021E+02
      6.856  0.4041E+01  0.4041E+01  0.2174E+02  0.2174E+02
      7.131  0.3399E+01  0.3399E+01  0.2281E+02  0.2281E+02
      7.406  0.5696E+01  0.5696E+01  0.2400E+02  0.2400E+02
      7.681  0.5796E+01  0.5796E+01  0.2531E+02  0.2531E+02
      7.956  0.3746E+01  0.3746E+01  0.2649E+02  0.2649E+02
      8.231  0.4342E+01  0.4342E+01  0.2755E+02  0.2755E+02
      8.505  0.1692E+01  0.1692E+01  0.2823E+02  0.2823E+02
      8.780  0.1461E+01  0.1461E+01  0.2866E+02  0.2866E+02
      9.055  0.1135E+01  0.1135E+01  0.2903E+02  0.2903E+02
      9.330  0.1321E+01  0.1321E+01  0.2938E+02  0.2938E+02
      9.605  0.1017E+01  0.1017E+01  0.2971E+02  0.2971E+02
      9.880  0.7074E+00  0.7074E+00  0.2995E+02  0.2995E+02
     10.154  0.1110E+01  0.1110E+01  0.3022E+02  0.3022E+02
     10.429  0.9169E+00  0.9169E+00  0.3051E+02  0.3051E+02
     10.704  0.7457E+00  0.7457E+00  0.3072E+02  0.3072E+02
     10.979  0.1085E+01  0.1085E+01  0.3100E+02  0.3100E+02
     11.254  0.1101E+01  0.1101E+01  0.3128E+02  0.3128E+02
     11.529  0.1102E+01  0.1102E+01  0.3159E+02  0.3159E+02
     11.804  0.9718E+00  0.9718E+00  0.3188E+02  0.3188E+02
     12.078  0.1057E+01  0.1057E+01  0.3214E+02  0.3214E+02
     12.353  0.1185E+01  0.1185E+01  0.3245E+02  0.3245E+02
     12.628  0.1067E+01  0.1067E+01  0.3275E+02  0.3275E+02
     12.903  0.1052E+01  0.1052E+01  0.3304E+02  0.3304E+02
     13.178  0.1002E+01  0.1002E+01  0.3333E+02  0.3333E+02
     13.453  0.9820E+00  0.9820E+00  0.3360E+02  0.3360E+02
     13.727  0.9926E+00  0.9926E+00  0.3387E+02  0.3387E+02
     14.002  0.1023E+01  0.1023E+01  0.3414E+02  0.3414E+02
     14.277  0.1139E+01  0.1139E+01  0.3443E+02  0.3443E+02
     14.552  0.1137E+01  0.1137E+01  0.3475E+02  0.3475E+02
     14.827  0.1124E+01  0.1124E+01  0.3506E+02  0.3506E+02
     15.102  0.1156E+01  0.1156E+01  0.3537E+02  0.3537E+02
     15.376  0.1168E+01  0.1168E+01  0.3571E+02  0.3571E+02
     15.651  0.1156E+01  0.1156E+01  0.3603E+02  0.3603E+02
     15.926  0.1361E+01  0.1361E+01  0.3636E+02  0.3636E+02
     16.201  0.1529E+01  0.1529E+01  0.3677E+02  0.3677E+02
     16.476  0.1430E+01  0.1430E+01  0.3715E+02  0.3715E+02
     16.751  0.1331E+01  0.1331E+01  0.3754E+02  0.3754E+02
     17.026  0.1448E+01  0.1448E+01  0.3792E+02  0.3792E+02
     17.300  0.1331E+01  0.1331E+01  0.3832E+02  0.3832E+02
     17.575  0.1058E+01  0.1058E+01  0.3864E+02  0.3864E+02
     17.850  0.8329E+00  0.8329E+00  0.3890E+02  0.3890E+02
     18.125  0.8284E+00  0.8284E+00  0.3912E+02  0.3912E+02
     18.400  0.7072E+00  0.7072E+00  0.3934E+02  0.3934E+02
     18.675  0.5605E+00  0.5605E+00  0.3951E+02  0.3951E+02
     18.949  0.4901E+00  0.4901E+00  0.3965E+02  0.3965E+02
     19.224  0.4898E+00  0.4898E+00  0.3979E+02  0.3979E+02
     19.499  0.4070E+00  0.4070E+00  0.3992E+02  0.3992E+02
     19.774  0.1286E+00  0.1286E+00  0.3998E+02  0.3998E+02
     20.049  0.4435E-01  0.4435E-01  0.4000E+02  0.4000E+02
     20.324  0.0000E+00  0.0000E+00  0.4000E+02  0.4000E+02
     20.598  0.0000E+00  0.0000E+00  0.4000E+02  0.4000E+02
     20.873  0.0000E+00  0.0000E+00  0.4000E+02  0.4000E+02
     21.148  0.0000E+00  0.0000E+00  0.4000E+02  0.4000E+02
     21.423  0.0000E+00  0.0000E+00  0.4000E+02  0.4000E+02
     21.698  0.0000E+00  0.0000E+00  0.4000E+02  0.4000E+02
     21.973  0.0000E+00  0.0000E+00  0.4000E+02  0.4000E+02
     22.248  0.0000E+00  0.0000E+00  0.4000E+02  0.4000E+02
     22.522  0.0000E+00  0.0000E+00  0.4000E+02  0.4000E+02
     22.797  0.0000E+00  0.0000E+00  0.4000E+02  0.4000E+02
     23.072  0.0000E+00  0.0000E+00  0.4000E+02  0.4000E+02
     23.347  0.0000E+00  0.0000E+00  0.4000E+02  0.4000E+02
     23.622  0.0000E+00  0.0000E+00  0.4000E+02  0.4000E+02
     23.897  0.0000E+00  0.0000E+00  0.4000E+02  0.4000E+02
