       N       E                     dE             d eps       ncg     rms          rms(c)
DAV:   1    -0.306365637129E+02   -0.30637E+02   -0.90856E-01  9600   0.102E+01    0.164E-01
DAV:   2    -0.306384994436E+02   -0.19357E-02   -0.12502E-02 12688   0.171E+00    0.530E-01
DAV:   3    -0.306366375592E+02    0.18619E-02   -0.10355E-02 11280   0.165E+00    0.127E-01
DAV:   4    -0.306364951178E+02    0.14244E-03   -0.80698E-04 11792   0.354E-01    0.396E-02
DAV:   5    -0.306365275000E+02   -0.32382E-04   -0.75659E-05 11056   0.997E-02    0.129E-02
DAV:   6    -0.306365313621E+02   -0.38621E-05   -0.68479E-06 12072   0.269E-02    0.476E-03
DAV:   7    -0.306365282319E+02    0.31302E-05   -0.65903E-07 12320   0.101E-02    0.842E-04
DAV:   8    -0.306365280862E+02    0.14569E-06   -0.56281E-08  9616   0.191E-03    0.281E-04
DAV:   9    -0.306365281136E+02   -0.27369E-07   -0.40167E-09  5584   0.666E-04    0.744E-05
DAV:  10    -0.306365281079E+02    0.56625E-08   -0.75392E-10  5120   0.299E-04
   1 F= -.30636528E+02 E0= -.30636528E+02  d E =0.000000E+00  mag=     0.0000
