 running on   24 total cores
 distrk:  each k-point on   24 cores,    1 groups
 distr:  one band on    6 cores,    4 groups
 using from now: INCAR     
 vasp.5.4.4.18Apr17-6-g9f103f2a35 (build Jan 03 2018 06:08:52) complex          
  
 POSCAR found :  2 types and       6 ions
 scaLAPACK will be used
 WARNING: for PREC=h ENMAX is automatically increase by 25 %
        this was not the case for versions prior to vasp.4.4
 WARNING: for PREC=h ENMAX is automatically increase by 25 %
        this was not the case for versions prior to vasp.4.4
 LDA part: xc-table for Pade appr. of Perdew
 POSCAR, INCAR and KPOINTS ok, starting setup
 FFT: planning ...
 WAVECAR not read
 entering main loop
       N       E                     dE             d eps       ncg     rms          rms(c)
DAV:   1     0.624932977730E+03    0.62493E+03   -0.32617E+04 11464   0.157E+03
DAV:   2     0.953478033904E+00   -0.62398E+03   -0.59557E+03  9896   0.505E+02
DAV:   3    -0.341927335931E+02   -0.35146E+02   -0.33334E+02 11288   0.138E+02
DAV:   4    -0.350665480900E+02   -0.87381E+00   -0.87164E+00 10736   0.212E+01
DAV:   5    -0.350906629182E+02   -0.24115E-01   -0.24112E-01 11704   0.376E+00    0.278E+01
DAV:   6    -0.569438643809E+02   -0.21853E+02   -0.17521E+02 11824   0.159E+02    0.409E+01
DAV:   7    -0.296034455891E+02    0.27340E+02   -0.63971E+01 11464   0.992E+01    0.105E+01
DAV:   8    -0.289264659477E+02    0.67698E+00   -0.10446E+01 12840   0.269E+01    0.507E+00
DAV:   9    -0.288164142394E+02    0.11005E+00   -0.17012E+00 11736   0.134E+01    0.321E+00
DAV:  10    -0.287654586105E+02    0.50956E-01   -0.31392E-01 11352   0.894E+00    0.119E+00
DAV:  11    -0.287707811154E+02   -0.53225E-02   -0.24923E-02 11104   0.157E+00    0.724E-01
DAV:  12    -0.287646412985E+02    0.61398E-02   -0.26766E-02 12384   0.154E+00    0.157E-01
DAV:  13    -0.287650907651E+02   -0.44947E-03   -0.20347E-03 11712   0.364E-01    0.194E-01
DAV:  14    -0.287647285975E+02    0.36217E-03   -0.81559E-04 12824   0.235E-01    0.666E-02
DAV:  15    -0.287646972717E+02    0.31326E-04   -0.17555E-04 13752   0.104E-01    0.104E-02
DAV:  16    -0.287646983898E+02   -0.11181E-05   -0.99538E-06 10704   0.242E-02    0.684E-03
DAV:  17    -0.287646974707E+02    0.91906E-06   -0.11465E-06 13040   0.931E-03    0.171E-03
DAV:  18    -0.287646972495E+02    0.22123E-06   -0.95308E-08 10512   0.235E-03    0.602E-04
DAV:  19    -0.287646971552E+02    0.94269E-07   -0.91029E-09  6304   0.903E-04    0.174E-04
DAV:  20    -0.287646971220E+02    0.33166E-07   -0.23401E-09  5800   0.370E-04    0.875E-05
DAV:  21    -0.287646971202E+02    0.18536E-08   -0.38229E-10  5544   0.227E-04
   1 F= -.28764697E+02 E0= -.28764881E+02  d E =-.287647E+02  mag=    -0.0000
 curvature:   0.00 expect dE= 0.000E+00 dE for cont linesearch  0.000E+00
 trial: gam= 0.00000 g(F)=  0.102E+01 g(S)=  0.393E+01 ort = 0.000E+00 (trialstep = 0.100E+01)
 search vector abs. value=  0.495E+01
 bond charge predicted
       N       E                     dE             d eps       ncg     rms          rms(c)
DAV:   1    -0.180247058607E+03   -0.15148E+03   -0.20381E+03  9728   0.607E+02    0.919E+01
DAV:   2    -0.758675353573E+02    0.10438E+03   -0.86937E+02 11664   0.248E+02    0.590E+01
DAV:   3    -0.591296935044E+02    0.16738E+02   -0.34140E+02 11488   0.185E+02    0.440E+01
DAV:   4    -0.321476812249E+02    0.26982E+02   -0.75942E+01 11056   0.956E+01    0.102E+01
DAV:   5    -0.305224080957E+02    0.16253E+01   -0.34997E+00 10120   0.131E+01    0.793E+00
DAV:   6    -0.303132846015E+02    0.20912E+00   -0.30864E+00 14272   0.235E+01    0.115E+01
DAV:   7    -0.299420110202E+02    0.37127E+00   -0.32199E+00 12528   0.161E+01    0.444E+00
DAV:   8    -0.297269465365E+02    0.21506E+00   -0.61367E-01 12552   0.660E+00    0.972E-01
DAV:   9    -0.297242870786E+02    0.26595E-02   -0.25146E-02 10992   0.139E+00    0.506E-01
DAV:  10    -0.297230492308E+02    0.12378E-02   -0.29191E-03 13784   0.553E-01    0.219E-01
DAV:  11    -0.297226913796E+02    0.35785E-03   -0.13748E-03 13040   0.384E-01    0.488E-02
DAV:  12    -0.297227123912E+02   -0.21012E-04   -0.21708E-04 11040   0.116E-01    0.317E-02
DAV:  13    -0.297227047929E+02    0.75984E-05   -0.25362E-05 12424   0.396E-02    0.138E-02
DAV:  14    -0.297227040326E+02    0.76028E-06   -0.37488E-06 11640   0.187E-02    0.671E-03
DAV:  15    -0.297227038078E+02    0.22478E-06   -0.11419E-06 12880   0.102E-02    0.198E-03
DAV:  16    -0.297227037414E+02    0.66455E-07   -0.10004E-07 10360   0.267E-03    0.901E-04
DAV:  17    -0.297227037156E+02    0.25777E-07   -0.15019E-08  6136   0.109E-03    0.233E-04
DAV:  18    -0.297227037274E+02   -0.11840E-07   -0.43923E-09  5720   0.497E-04    0.129E-04
DAV:  19    -0.297227037336E+02   -0.61773E-08   -0.15821E-09  5344   0.401E-04
   2 F= -.29722704E+02 E0= -.29722501E+02  d E =-.958007E+00  mag=    -0.0000
 trial-energy change:   -0.958007  1 .order   -1.260104   -4.952133    2.431924
 step:   0.6124(harm=  0.6707)  dis= 0.09064  next Energy=   -30.211623 (dE=-0.145E+01)
 bond charge predicted
       N       E                     dE             d eps       ncg     rms          rms(c)
DAV:   1    -0.723518429199E+02   -0.42629E+02   -0.38541E+02 10848   0.198E+02    0.698E+01
DAV:   2    -0.143685485519E+03   -0.71334E+02   -0.85949E+02 11184   0.354E+02    0.634E+01
DAV:   3    -0.419716487730E+02    0.10171E+03   -0.29353E+02 10976   0.153E+02    0.236E+01
DAV:   4    -0.357117249868E+02    0.62599E+01   -0.73095E+00 11024   0.272E+01    0.166E+01
DAV:   5    -0.306924221468E+02    0.50193E+01   -0.10090E+01 12160   0.343E+01    0.928E+00
DAV:   6    -0.304414007444E+02    0.25102E+00   -0.64847E+00 12864   0.272E+01    0.549E+00
DAV:   7    -0.302139698958E+02    0.22743E+00   -0.76735E-01 11392   0.116E+01    0.249E+00
DAV:   8    -0.301670503117E+02    0.46920E-01   -0.17762E-01 14224   0.426E+00    0.103E+00
DAV:   9    -0.301565515051E+02    0.10499E-01   -0.64253E-02 11664   0.223E+00    0.148E-01
DAV:  10    -0.301567593483E+02   -0.20784E-03   -0.46588E-03 11064   0.672E-01    0.134E-01
DAV:  11    -0.301567195002E+02    0.39848E-04   -0.15275E-03 12256   0.352E-01    0.110E-01
DAV:  12    -0.301566022261E+02    0.11727E-03   -0.41932E-04 11928   0.189E-01    0.112E-02
DAV:  13    -0.301566036361E+02   -0.14100E-05   -0.17762E-05 11160   0.387E-02    0.121E-02
DAV:  14    -0.301566034343E+02    0.20176E-06   -0.13245E-05 11968   0.308E-02    0.962E-03
DAV:  15    -0.301566025331E+02    0.90121E-06   -0.16211E-06 11824   0.125E-02    0.355E-03
DAV:  16    -0.301566022427E+02    0.29035E-06   -0.85989E-07 12456   0.802E-03    0.154E-03
DAV:  17    -0.301566022466E+02   -0.38090E-08   -0.72438E-08  9792   0.258E-03
   3 F= -.30156602E+02 E0= -.30156330E+02  d E =-.139191E+01  mag=     0.0000
 curvature:  -0.32 expect dE=-0.105E+00 dE for cont linesearch -0.898E-04
 trial: gam= 0.07249 g(F)=  0.193E+00 g(S)=  0.129E+00 ort =-0.370E-01 (trialstep = 0.922E+00)
 search vector abs. value=  0.343E+00
 bond charge predicted
       N       E                     dE             d eps       ncg     rms          rms(c)
DAV:   1    -0.320159664850E+02   -0.18594E+01   -0.26123E+01 10880   0.923E+01    0.156E+01
DAV:   2    -0.383795846635E+02   -0.63636E+01   -0.55971E+01 11456   0.793E+01    0.230E+01
DAV:   3    -0.304217963791E+02    0.79578E+01   -0.19301E+01 11440   0.552E+01    0.262E+00
DAV:   4    -0.306649038784E+02   -0.24311E+00   -0.24479E+00 14096   0.186E+01    0.792E+00
DAV:   5    -0.304199317343E+02    0.24497E+00   -0.14909E+00 11664   0.137E+01    0.258E+00
DAV:   6    -0.303687327087E+02    0.51199E-01   -0.28928E-01 12000   0.485E+00    0.619E-01
DAV:   7    -0.303646628506E+02    0.40699E-02   -0.16902E-02 11424   0.137E+00    0.982E-02
DAV:   8    -0.303646716739E+02   -0.88233E-05   -0.11658E-03 10992   0.294E-01    0.421E-02
DAV:   9    -0.303646902399E+02   -0.18566E-04   -0.15693E-04 12096   0.123E-01    0.434E-02
DAV:  10    -0.303646696212E+02    0.20619E-04   -0.79283E-05 12384   0.875E-02    0.568E-03
DAV:  11    -0.303646691875E+02    0.43375E-06   -0.33675E-06 11056   0.174E-02    0.111E-03
DAV:  12    -0.303646691678E+02    0.19685E-07   -0.13096E-07 11536   0.271E-03    0.505E-04
DAV:  13    -0.303646691587E+02    0.90258E-08   -0.64657E-09  6536   0.779E-04
   4 F= -.30364669E+02 E0= -.30364498E+02  d E =-.208067E+00  mag=    -0.0000
 trial-energy change:   -0.208067  1 .order   -0.205800   -0.294533   -0.117067
 step:   1.4650(harm=  1.5310)  dis= 0.11054  next Energy=   -30.399553 (dE=-0.243E+00)
 bond charge predicted
       N       E                     dE             d eps       ncg     rms          rms(c)
DAV:   1    -0.309841550204E+02   -0.61949E+00   -0.91706E+00 11280   0.550E+01    0.906E+00
DAV:   2    -0.331972263676E+02   -0.22131E+01   -0.18996E+01 11536   0.456E+01    0.146E+01
DAV:   3    -0.304111338154E+02    0.27861E+01   -0.76587E+00 11520   0.319E+01    0.130E+00
DAV:   4    -0.304718112408E+02   -0.60677E-01   -0.57497E-01 14064   0.910E+00    0.367E+00
DAV:   5    -0.304052804858E+02    0.66531E-01   -0.37679E-01 11472   0.742E+00    0.993E-01
DAV:   6    -0.303976041093E+02    0.76764E-02   -0.43927E-02 11840   0.189E+00    0.180E-01
DAV:   7    -0.303972812035E+02    0.32291E-03   -0.20844E-03 11232   0.465E-01    0.445E-02
DAV:   8    -0.303972871640E+02   -0.59604E-05   -0.13076E-04 11408   0.103E-01    0.136E-02
DAV:   9    -0.303972860146E+02    0.11494E-05   -0.10210E-05 10800   0.281E-02    0.690E-03
DAV:  10    -0.303972848060E+02    0.12086E-05   -0.18768E-06 13648   0.112E-02    0.116E-03
DAV:  11    -0.303972846911E+02    0.11487E-06   -0.18416E-07 10512   0.305E-03    0.620E-04
DAV:  12    -0.303972846840E+02    0.70559E-08   -0.19400E-08  6992   0.165E-03
   5 F= -.30397285E+02 E0= -.30397384E+02  d E =-.240682E+00  mag=    -0.0000
 curvature:  -0.81 expect dE=-0.466E-01 dE for cont linesearch -0.137E-03
 trial: gam= 0.28343 g(F)=  0.127E-01 g(S)=  0.447E-01 ort =-0.760E-02 (trialstep = 0.103E+01)
 search vector abs. value=  0.806E-01
 bond charge predicted
       N       E                     dE             d eps       ncg     rms          rms(c)
DAV:   1    -0.316492317301E+02   -0.12519E+01   -0.15347E+01 11488   0.748E+01    0.121E+01
DAV:   2    -0.358837905449E+02   -0.42346E+01   -0.47639E+01 11504   0.616E+01    0.237E+01
DAV:   3    -0.305002067164E+02    0.53836E+01   -0.19902E+01 11648   0.427E+01    0.325E+00
DAV:   4    -0.305701779821E+02   -0.69971E-01   -0.12230E+00 13440   0.154E+01    0.456E+00
DAV:   5    -0.304429969799E+02    0.12718E+00   -0.60834E-01 11424   0.102E+01    0.101E+00
DAV:   6    -0.304339423566E+02    0.90546E-02   -0.50812E-02 12176   0.210E+00    0.134E-01
DAV:   7    -0.304339297133E+02    0.12643E-04   -0.35356E-03 10736   0.575E-01    0.798E-02
DAV:   8    -0.304338748766E+02    0.54837E-04   -0.39400E-04 11664   0.231E-01    0.571E-02
DAV:   9    -0.304338576652E+02    0.17211E-04   -0.76610E-05 11408   0.100E-01    0.625E-03
DAV:  10    -0.304338581210E+02   -0.45588E-06   -0.60169E-06 10896   0.202E-02    0.219E-03
DAV:  11    -0.304338583268E+02   -0.20578E-06   -0.37183E-07 12384   0.581E-03    0.942E-04
DAV:  12    -0.304338583984E+02   -0.71592E-07   -0.65103E-08 10064   0.283E-03    0.381E-04
DAV:  13    -0.304338584217E+02   -0.23323E-07   -0.49166E-09  5936   0.739E-04    0.609E-05
DAV:  14    -0.304338584230E+02   -0.12424E-08   -0.10293E-09  5592   0.308E-04
   6 F= -.30433858E+02 E0= -.30433360E+02  d E =-.365737E-01  mag=     0.0000
 trial-energy change:   -0.036574  1 .order   -0.037299   -0.056956   -0.017641
 step:   1.5887(harm=  1.4936)  dis= 0.05129  next Energy=   -30.438515 (dE=-0.412E-01)
 bond charge predicted
       N       E                     dE             d eps       ncg     rms          rms(c)
DAV:   1    -0.307984834540E+02   -0.36463E+00   -0.44146E+00 11048   0.404E+01    0.674E+00
DAV:   2    -0.322362931517E+02   -0.14378E+01   -0.13830E+01 11472   0.344E+01    0.135E+01
DAV:   3    -0.304516332785E+02    0.17847E+01   -0.65668E+00 11384   0.243E+01    0.150E+00
DAV:   4    -0.304753159474E+02   -0.23683E-01   -0.31453E-01 13456   0.771E+00    0.245E+00
DAV:   5    -0.304395369928E+02    0.35779E-01   -0.16471E-01 11544   0.548E+00    0.434E-01
DAV:   6    -0.304381843683E+02    0.13526E-02   -0.10377E-02 11776   0.828E-01    0.807E-02
DAV:   7    -0.304381500636E+02    0.34305E-04   -0.52280E-04 11032   0.229E-01    0.449E-02
DAV:   8    -0.304381390829E+02    0.10981E-04   -0.63711E-05 11552   0.883E-02    0.165E-02
DAV:   9    -0.304381382192E+02    0.86369E-06   -0.17135E-05 10920   0.526E-02    0.578E-03
DAV:  10    -0.304381383181E+02   -0.98842E-07   -0.10438E-06 11288   0.110E-02    0.187E-03
DAV:  11    -0.304381384385E+02   -0.12047E-06   -0.16214E-07 11280   0.367E-03    0.324E-04
DAV:  12    -0.304381384701E+02   -0.31529E-07   -0.16877E-08  6104   0.157E-03    0.360E-04
DAV:  13    -0.304381384895E+02   -0.19438E-07   -0.34172E-09  5760   0.644E-04    0.578E-05
DAV:  14    -0.304381384935E+02   -0.40181E-08   -0.69026E-10  5352   0.166E-04
   7 F= -.30438138E+02 E0= -.30437509E+02  d E =-.408538E-01  mag=    -0.0000
 curvature:  -1.04 expect dE=-0.464E-01 dE for cont linesearch -0.430E-04
 trial: gam= 0.86103 g(F)=  0.998E-02 g(S)=  0.345E-01 ort =-0.182E-02 (trialstep = 0.911E+00)
 search vector abs. value=  0.101E+00
 bond charge predicted
       N       E                     dE             d eps       ncg     rms          rms(c)
DAV:   1    -0.303257609822E+02    0.11238E+00   -0.96709E+00 10960   0.869E+01    0.479E+00
DAV:   2    -0.309334256568E+02   -0.60766E+00   -0.66430E+00 11408   0.244E+01    0.613E+00
DAV:   3    -0.305153967535E+02    0.41803E+00   -0.16287E+00 11392   0.151E+01    0.213E+00
DAV:   4    -0.305807409405E+02   -0.65344E-01   -0.72288E-01 11888   0.135E+01    0.442E+00
DAV:   5    -0.304701130036E+02    0.11063E+00   -0.62734E-01 11248   0.866E+00    0.325E-01
DAV:   6    -0.304703208643E+02   -0.20786E-03   -0.22820E-02 10432   0.108E+00    0.131E-01
DAV:   7    -0.304702458956E+02    0.74969E-04   -0.10264E-03 13568   0.340E-01    0.615E-02
DAV:   8    -0.304702651643E+02   -0.19269E-04   -0.11232E-04 11264   0.100E-01    0.214E-02
DAV:   9    -0.304702661484E+02   -0.98418E-06   -0.18514E-05 12816   0.604E-02    0.789E-03
DAV:  10    -0.304702653800E+02    0.76840E-06   -0.28962E-06 10832   0.228E-02    0.131E-03
DAV:  11    -0.304702653311E+02    0.48922E-07   -0.13675E-07 11440   0.449E-03    0.492E-04
DAV:  12    -0.304702653183E+02    0.12866E-07   -0.95346E-09  6688   0.105E-03    0.143E-04
DAV:  13    -0.304702653129E+02    0.53369E-08   -0.28829E-09  5792   0.566E-04
   8 F= -.30470265E+02 E0= -.30469506E+02  d E =-.321268E-01  mag=    -0.0000
 trial-energy change:   -0.032127  1 .order   -0.032090   -0.039080   -0.025100
 step:   2.5469(harm=  2.5469)  dis= 0.07657  next Energy=   -30.492760 (dE=-0.546E-01)
 bond charge predicted
       N       E                     dE             d eps       ncg     rms          rms(c)
DAV:   1    -0.300680585486E+02    0.40221E+00   -0.31773E+01 11088   0.156E+02    0.894E+00
DAV:   2    -0.320295092210E+02   -0.19615E+01   -0.21993E+01 11216   0.452E+01    0.107E+01
DAV:   3    -0.306203107984E+02    0.14092E+01   -0.48036E+00 11392   0.286E+01    0.353E+00
DAV:   4    -0.308406371625E+02   -0.22033E+00   -0.23253E+00 12016   0.224E+01    0.779E+00
DAV:   5    -0.304934895069E+02    0.34715E+00   -0.21086E+00 11344   0.147E+01    0.704E-01
DAV:   6    -0.304933806740E+02    0.10883E-03   -0.74962E-02 10544   0.220E+00    0.233E-01
DAV:   7    -0.304932122041E+02    0.16847E-03   -0.41393E-03 13376   0.687E-01    0.982E-02
DAV:   8    -0.304932800997E+02   -0.67896E-04   -0.39781E-04 10720   0.198E-01    0.320E-02
DAV:   9    -0.304932829326E+02   -0.28329E-05   -0.32694E-05 13920   0.753E-02    0.121E-02
DAV:  10    -0.304932814627E+02    0.14699E-05   -0.70484E-06 10768   0.338E-02    0.276E-03
DAV:  11    -0.304932813555E+02    0.10717E-06   -0.35063E-07 11680   0.881E-03    0.807E-04
DAV:  12    -0.304932813503E+02    0.51878E-08   -0.46316E-08  9888   0.200E-03
   9 F= -.30493281E+02 E0= -.30492666E+02  d E =-.551429E-01  mag=    -0.0000
 curvature:  -3.00 expect dE=-0.704E-01 dE for cont linesearch -0.132E-03
 trial: gam= 0.72867 g(F)=  0.817E-02 g(S)=  0.153E-01 ort =-0.211E-02 (trialstep = 0.124E+01)
 search vector abs. value=  0.741E-01
 bond charge predicted
       N       E                     dE             d eps       ncg     rms          rms(c)
DAV:   1    -0.298492277484E+02    0.64405E+00   -0.23329E+01 11968   0.148E+02    0.551E+00
DAV:   2    -0.309893797527E+02   -0.11402E+01   -0.13155E+01 11120   0.329E+01    0.686E+00
DAV:   3    -0.306263293622E+02    0.36305E+00   -0.29158E+00 11440   0.180E+01    0.336E+00
DAV:   4    -0.306281957206E+02   -0.18664E-02   -0.92961E-01 11312   0.151E+01    0.391E+00
DAV:   5    -0.305141073396E+02    0.11409E+00   -0.54039E-01 11600   0.100E+01    0.707E-01
DAV:   6    -0.305115399624E+02    0.25674E-02   -0.41707E-02 12704   0.219E+00    0.123E-01
DAV:   7    -0.305116738973E+02   -0.13393E-03   -0.31659E-03 10928   0.560E-01    0.863E-02
DAV:   8    -0.305116876574E+02   -0.13760E-04   -0.27314E-04 12256   0.176E-01    0.328E-02
DAV:   9    -0.305116933284E+02   -0.56710E-05   -0.49302E-05 11040   0.940E-02    0.766E-03
DAV:  10    -0.305116923775E+02    0.95090E-06   -0.47829E-06 12016   0.289E-02    0.191E-03
DAV:  11    -0.305116924305E+02   -0.52931E-07   -0.32614E-07 11968   0.488E-03    0.874E-04
DAV:  12    -0.305116924522E+02   -0.21695E-07   -0.38840E-08  9376   0.202E-03    0.183E-04
DAV:  13    -0.305116924649E+02   -0.12700E-07   -0.25874E-09  5776   0.623E-04    0.576E-05
DAV:  14    -0.305116924677E+02   -0.28267E-08   -0.73982E-10  5472   0.275E-04
  10 F= -.30511692E+02 E0= -.30511425E+02  d E =-.184111E-01  mag=    -0.0000
 trial-energy change:   -0.018411  1 .order   -0.018737   -0.027133   -0.010341
 step:   2.1993(harm=  2.0008)  dis= 0.03166  next Energy=   -30.515553 (dE=-0.223E-01)
 bond charge predicted
       N       E                     dE             d eps       ncg     rms          rms(c)
DAV:   1    -0.301127561850E+02    0.39894E+00   -0.14006E+01 12240   0.115E+02    0.415E+00
DAV:   2    -0.307532214104E+02   -0.64047E+00   -0.74896E+00 11008   0.247E+01    0.472E+00
DAV:   3    -0.305756613856E+02    0.17756E+00   -0.13881E+00 11584   0.131E+01    0.248E+00
DAV:   4    -0.305852252556E+02   -0.95639E-02   -0.56931E-01 11376   0.119E+01    0.319E+00
DAV:   5    -0.305136075995E+02    0.71618E-01   -0.35427E-01 11520   0.804E+00    0.533E-01
DAV:   6    -0.305121946976E+02    0.14129E-02   -0.24121E-02 12304   0.162E+00    0.975E-02
DAV:   7    -0.305122556790E+02   -0.60981E-04   -0.16665E-03 11040   0.400E-01    0.642E-02
DAV:   8    -0.305122670298E+02   -0.11351E-04   -0.14424E-04 12000   0.116E-01    0.239E-02
DAV:   9    -0.305122713246E+02   -0.42948E-05   -0.27493E-05 10896   0.670E-02    0.659E-03
DAV:  10    -0.305122706425E+02    0.68213E-06   -0.28192E-06 11936   0.234E-02    0.141E-03
DAV:  11    -0.305122706774E+02   -0.34972E-07   -0.20024E-07 11184   0.383E-03    0.664E-04
DAV:  12    -0.305122706920E+02   -0.14508E-07   -0.18976E-08  6816   0.146E-03    0.134E-04
DAV:  13    -0.305122707010E+02   -0.90549E-08   -0.32676E-09  5840   0.587E-04
  11 F= -.30512271E+02 E0= -.30511795E+02  d E =-.189894E-01  mag=     0.0000
 curvature:  -3.15 expect dE=-0.134E+00 dE for cont linesearch -0.238E-02
 ZBRENT: interpolating
 opt :   1.7452  next Energy=   -30.513969 (dE=-0.207E-01)
 bond charge predicted
       N       E                     dE             d eps       ncg     rms          rms(c)
DAV:   1    -0.304325875811E+02    0.79683E-01   -0.31309E+00 12736   0.552E+01    0.202E+00
DAV:   2    -0.305746450678E+02   -0.14206E+00   -0.16169E+00 11024   0.117E+01    0.224E+00
DAV:   3    -0.305237763202E+02    0.50869E-01   -0.24978E-01 11728   0.575E+00    0.898E-01
DAV:   4    -0.305270194664E+02   -0.32431E-02   -0.95601E-02 12752   0.450E+00    0.140E+00
DAV:   5    -0.305140966895E+02    0.12923E-01   -0.67933E-02 11472   0.435E+00    0.243E-01
DAV:   6    -0.305138127112E+02    0.28398E-03   -0.43874E-03 12464   0.689E-01    0.472E-02
DAV:   7    -0.305138164468E+02   -0.37356E-05   -0.25311E-04 11200   0.157E-01    0.248E-02
DAV:   8    -0.305138192937E+02   -0.28469E-05   -0.16600E-05 11888   0.396E-02    0.759E-03
DAV:   9    -0.305138198264E+02   -0.53275E-06   -0.21619E-06 11040   0.187E-02    0.270E-03
DAV:  10    -0.305138196936E+02    0.13282E-06   -0.43721E-07 11776   0.111E-02    0.745E-04
DAV:  11    -0.305138196741E+02    0.19530E-07   -0.33791E-08  8352   0.224E-03    0.199E-04
DAV:  12    -0.305138196740E+02    0.74579E-10   -0.40069E-09  5728   0.692E-04
  12 F= -.30513820E+02 E0= -.30513445E+02  d E =-.205383E-01  mag=     0.0000
 curvature:  -2.25 expect dE=-0.640E-01 dE for cont linesearch -0.644E-06
 trial: gam= 1.00340 g(F)=  0.262E-03 g(S)=  0.282E-01 ort =-0.146E-03 (trialstep = 0.965E+00)
 search vector abs. value=  0.103E+00
 bond charge predicted
       N       E                     dE             d eps       ncg     rms          rms(c)
DAV:   1    -0.302555927194E+02    0.25823E+00   -0.18683E+01 12304   0.123E+02    0.669E+00
DAV:   2    -0.315119777665E+02   -0.12564E+01   -0.13559E+01 11536   0.351E+01    0.862E+00
DAV:   3    -0.305997449320E+02    0.91223E+00   -0.30889E+00 11456   0.208E+01    0.226E+00
DAV:   4    -0.305345379423E+02    0.65207E-01   -0.17423E-01 12256   0.382E+00    0.457E-01
DAV:   5    -0.305397292677E+02   -0.51913E-02   -0.58453E-02 12032   0.351E+00    0.103E+00
DAV:   6    -0.305331569262E+02    0.65723E-02   -0.32312E-02 11120   0.294E+00    0.117E-01
DAV:   7    -0.305332520972E+02   -0.95171E-04   -0.25503E-03 10640   0.470E-01    0.891E-02
DAV:   8    -0.305332074518E+02    0.44645E-04   -0.25481E-04 11968   0.206E-01    0.240E-02
DAV:   9    -0.305332156424E+02   -0.81906E-05   -0.36626E-05 10848   0.481E-02    0.110E-02
DAV:  10    -0.305332142221E+02    0.14203E-05   -0.49663E-06 10816   0.224E-02    0.484E-03
DAV:  11    -0.305332139426E+02    0.27946E-06   -0.81765E-07 12608   0.116E-02    0.497E-04
DAV:  12    -0.305332139017E+02    0.40893E-07   -0.71815E-08  9696   0.249E-03    0.272E-04
DAV:  13    -0.305332138829E+02    0.18825E-07   -0.55361E-09  5648   0.994E-04    0.104E-04
DAV:  14    -0.305332138788E+02    0.41309E-08   -0.13034E-09  5504   0.406E-04
  13 F= -.30533214E+02 E0= -.30532543E+02  d E =-.193942E-01  mag=     0.0000
 trial-energy change:   -0.019394  1 .order   -0.019022   -0.027364   -0.010680
 step:   1.4784(harm=  1.5835)  dis= 0.02217  next Energy=   -30.536107 (dE=-0.223E-01)
 bond charge predicted
       N       E                     dE             d eps       ncg     rms          rms(c)
DAV:   1    -0.304632213043E+02    0.69993E-01   -0.53878E+00 12208   0.656E+01    0.356E+00
DAV:   2    -0.308098942838E+02   -0.34667E+00   -0.37676E+00 11328   0.191E+01    0.465E+00
DAV:   3    -0.305576255932E+02    0.25227E+00   -0.91335E-01 11472   0.113E+01    0.132E+00
DAV:   4    -0.305640992002E+02   -0.64736E-02   -0.20747E-01 13056   0.663E+00    0.201E+00
DAV:   5    -0.305368732530E+02    0.27226E-01   -0.14510E-01 11616   0.586E+00    0.342E-01
DAV:   6    -0.305364125996E+02    0.46065E-03   -0.92947E-03 12560   0.105E+00    0.639E-02
DAV:   7    -0.305364153518E+02   -0.27523E-05   -0.55706E-04 11136   0.248E-01    0.327E-02
DAV:   8    -0.305364215174E+02   -0.61655E-05   -0.36075E-05 11120   0.588E-02    0.998E-03
DAV:   9    -0.305364225104E+02   -0.99300E-06   -0.30859E-06 12864   0.181E-02    0.320E-03
DAV:  10    -0.305364222775E+02    0.23282E-06   -0.32760E-07 12064   0.839E-03    0.490E-04
DAV:  11    -0.305364222195E+02    0.58088E-07   -0.38757E-08  9744   0.211E-03    0.184E-04
DAV:  12    -0.305364222082E+02    0.11281E-07   -0.29110E-09  5680   0.697E-04    0.708E-05
DAV:  13    -0.305364222022E+02    0.59918E-08   -0.77489E-10  5664   0.333E-04
  14 F= -.30536422E+02 E0= -.30535763E+02  d E =-.226025E-01  mag=    -0.0000
 curvature:  -2.79 expect dE=-0.292E-01 dE for cont linesearch -0.260E-04
 trial: gam= 0.13210 g(F)=  0.456E-02 g(S)=  0.590E-02 ort = 0.979E-03 (trialstep = 0.107E+01)
 search vector abs. value=  0.125E-01
 bond charge predicted
       N       E                     dE             d eps       ncg     rms          rms(c)
DAV:   1    -0.305393494585E+02   -0.29273E-02   -0.22391E+00 12256   0.334E+01    0.193E+00
DAV:   2    -0.305678815489E+02   -0.28532E-01   -0.73777E-01 10496   0.839E+00    0.127E+00
DAV:   3    -0.305686842948E+02   -0.80275E-03   -0.14850E-01 11328   0.545E+00    0.162E+00
DAV:   4    -0.305623295387E+02    0.63548E-02   -0.20999E-01 11680   0.639E+00    0.144E+00
DAV:   5    -0.305454811826E+02    0.16848E-01   -0.62897E-02 11648   0.388E+00    0.736E-02
DAV:   6    -0.305456422393E+02   -0.16106E-03   -0.37579E-03 10560   0.465E-01    0.461E-02
DAV:   7    -0.305456272022E+02    0.15037E-04   -0.18711E-04 12864   0.137E-01    0.269E-02
DAV:   8    -0.305456270152E+02    0.18700E-06   -0.18814E-05 12400   0.429E-02    0.993E-03
DAV:   9    -0.305456285457E+02   -0.15305E-05   -0.32920E-06 11888   0.198E-02    0.301E-03
DAV:  10    -0.305456284978E+02    0.47836E-07   -0.62086E-07 10992   0.119E-02    0.179E-03
DAV:  11    -0.305456284881E+02    0.97261E-08   -0.14128E-07 10864   0.509E-03    0.250E-04
DAV:  12    -0.305456284898E+02   -0.17262E-08   -0.87555E-09  5552   0.122E-03
  15 F= -.30545628E+02 E0= -.30544808E+02  d E =-.920629E-02  mag=    -0.0000
 trial-energy change:   -0.009206  1 .order   -0.009336   -0.011311   -0.007361
 step:   3.0582(harm=  3.0582)  dis= 0.01541  next Energy=   -30.552616 (dE=-0.162E-01)
 bond charge predicted
       N       E                     dE             d eps       ncg     rms          rms(c)
DAV:   1    -0.305262136550E+02    0.19415E-01   -0.76739E+00 12176   0.613E+01    0.352E+00
DAV:   2    -0.306260790201E+02   -0.99865E-01   -0.25552E+00 10464   0.156E+01    0.237E+00
DAV:   3    -0.306569951444E+02   -0.30916E-01   -0.67020E-01 11328   0.119E+01    0.368E+00
DAV:   4    -0.305982494709E+02    0.58746E-01   -0.85261E-01 11488   0.114E+01    0.216E+00
DAV:   5    -0.305534476448E+02    0.44802E-01   -0.14804E-01 11360   0.532E+00    0.150E-01
DAV:   6    -0.305538155152E+02   -0.36787E-03   -0.11279E-02 10592   0.866E-01    0.869E-02
DAV:   7    -0.305537590249E+02    0.56490E-04   -0.74406E-04 11616   0.272E-01    0.543E-02
DAV:   8    -0.305537524438E+02    0.65811E-05   -0.90724E-05 12144   0.889E-02    0.197E-02
DAV:   9    -0.305537578943E+02   -0.54505E-05   -0.12201E-05 12800   0.405E-02    0.547E-03
DAV:  10    -0.305537577582E+02    0.13613E-06   -0.19040E-06 10832   0.194E-02    0.250E-03
DAV:  11    -0.305537577394E+02    0.18768E-07   -0.42694E-07 11136   0.851E-03    0.803E-04
DAV:  12    -0.305537577407E+02   -0.12478E-08   -0.31860E-08  8592   0.239E-03
  16 F= -.30553758E+02 E0= -.30553730E+02  d E =-.173355E-01  mag=    -0.0000
 curvature:  -1.81 expect dE=-0.116E-01 dE for cont linesearch -0.816E-04
 trial: gam= 0.57182 g(F)=  0.162E-02 g(S)=  0.478E-02 ort = 0.752E-03 (trialstep = 0.147E+01)
 search vector abs. value=  0.113E-01
 bond charge predicted
       N       E                     dE             d eps       ncg     rms          rms(c)
DAV:   1    -0.309675253085E+02   -0.41377E+00   -0.69446E+00 11264   0.610E+01    0.785E+00
DAV:   2    -0.324406415641E+02   -0.14731E+01   -0.13236E+01 11232   0.405E+01    0.118E+01
DAV:   3    -0.305632276475E+02    0.18774E+01   -0.50457E+00 11408   0.278E+01    0.106E+00
DAV:   4    -0.305764579425E+02   -0.13230E-01   -0.25611E-01 13792   0.607E+00    0.177E+00
DAV:   5    -0.305628714731E+02    0.13586E-01   -0.14838E-01 11760   0.593E+00    0.973E-01
DAV:   6    -0.305559511219E+02    0.69204E-02   -0.37287E-02 11552   0.238E+00    0.112E-01
DAV:   7    -0.305558836067E+02    0.67515E-04   -0.17050E-03 10912   0.388E-01    0.397E-02
DAV:   8    -0.305558747741E+02    0.88326E-05   -0.20522E-04 10912   0.153E-01    0.317E-02
DAV:   9    -0.305558671381E+02    0.76360E-05   -0.39115E-05 11168   0.708E-02    0.821E-03
DAV:  10    -0.305558658289E+02    0.13092E-05   -0.32927E-06 11376   0.169E-02    0.157E-03
DAV:  11    -0.305558656841E+02    0.14477E-06   -0.31671E-07 10656   0.547E-03    0.484E-04
DAV:  12    -0.305558656264E+02    0.57707E-07   -0.16585E-08  7872   0.107E-03    0.149E-04
DAV:  13    -0.305558656093E+02    0.17077E-07   -0.26086E-09  5776   0.422E-04    0.927E-05
DAV:  14    -0.305558656053E+02    0.39854E-08   -0.11318E-09  5392   0.378E-04
  17 F= -.30555866E+02 E0= -.30555998E+02  d E =-.210786E-02  mag=    -0.0000
 trial-energy change:   -0.002108  1 .order   -0.002029   -0.010010    0.005952
 step:   0.9295(harm=  0.9194)  dis= 0.00467  next Energy=   -30.556951 (dE=-0.319E-02)
 bond charge predicted
       N       E                     dE             d eps       ncg     rms          rms(c)
DAV:   1    -0.306099759294E+02   -0.54110E-01   -0.94071E-01 11200   0.224E+01    0.275E+00
DAV:   2    -0.307915639135E+02   -0.18159E+00   -0.17323E+00 11296   0.142E+01    0.456E+00
DAV:   3    -0.305619843075E+02    0.22958E+00   -0.84453E-01 11216   0.982E+00    0.866E-01
DAV:   4    -0.305615361211E+02    0.44819E-03   -0.64148E-02 12992   0.366E+00    0.769E-01
DAV:   5    -0.305570815899E+02    0.44545E-02   -0.14914E-02 11408   0.185E+00    0.128E-01
DAV:   6    -0.305569533623E+02    0.12823E-03   -0.10428E-03 10944   0.250E-01    0.304E-02
DAV:   7    -0.305569469511E+02    0.64112E-05   -0.83235E-05 10896   0.959E-02    0.216E-02
DAV:   8    -0.305569454446E+02    0.15065E-05   -0.16572E-05 11440   0.435E-02    0.668E-03
DAV:   9    -0.305569456122E+02   -0.16759E-06   -0.25016E-06 10896   0.193E-02    0.160E-03
DAV:  10    -0.305569456684E+02   -0.56234E-07   -0.19127E-07 10992   0.600E-03    0.424E-04
DAV:  11    -0.305569456988E+02   -0.30373E-07   -0.18463E-08  6480   0.160E-03    0.235E-04
DAV:  12    -0.305569457145E+02   -0.15742E-07   -0.40154E-09  5488   0.732E-04    0.807E-05
DAV:  13    -0.305569457149E+02   -0.39472E-09   -0.99272E-10  5216   0.326E-04
  18 F= -.30556946E+02 E0= -.30557063E+02  d E =-.318797E-02  mag=     0.0000
 curvature:  -0.76 expect dE=-0.191E-02 dE for cont linesearch -0.293E-06
 trial: gam= 0.42776 g(F)=  0.106E-02 g(S)=  0.144E-02 ort =-0.660E-04 (trialstep = 0.136E+01)
 search vector abs. value=  0.452E-02
 bond charge predicted
       N       E                     dE             d eps       ncg     rms          rms(c)
DAV:   1    -0.304960979235E+02    0.60848E-01   -0.19488E+00 13616   0.449E+01    0.107E+00
DAV:   2    -0.305699751975E+02   -0.73877E-01   -0.82331E-01 10752   0.739E+00    0.106E+00
DAV:   3    -0.305618331501E+02    0.81420E-02   -0.66848E-02 11232   0.321E+00    0.572E-01
DAV:   4    -0.305630738497E+02   -0.12407E-02   -0.38725E-02 11744   0.322E+00    0.819E-01
DAV:   5    -0.305583606568E+02    0.47132E-02   -0.22187E-02 11424   0.229E+00    0.132E-01
DAV:   6    -0.305582082815E+02    0.15238E-03   -0.14716E-03 11968   0.340E-01    0.327E-02
DAV:   7    -0.305582095351E+02   -0.12537E-05   -0.12778E-04 11264   0.120E-01    0.161E-02
DAV:   8    -0.305582109401E+02   -0.14050E-05   -0.75665E-06 12496   0.298E-02    0.480E-03
DAV:   9    -0.305582112521E+02   -0.31199E-06   -0.94152E-07 12720   0.856E-03    0.154E-03
DAV:  10    -0.305582112368E+02    0.15305E-07   -0.69209E-08 10864   0.386E-03    0.400E-04
DAV:  11    -0.305582112435E+02   -0.67103E-08   -0.96683E-09  5856   0.855E-04
  19 F= -.30558211E+02 E0= -.30558310E+02  d E =-.126553E-02  mag=    -0.0000
 trial-energy change:   -0.001266  1 .order   -0.001282   -0.003358    0.000793
 step:   1.0939(harm=  1.0990)  dis= 0.00581  next Energy=   -30.558289 (dE=-0.134E-02)
 bond charge predicted
       N       E                     dE             d eps       ncg     rms          rms(c)
DAV:   1    -0.305559476606E+02    0.22636E-02   -0.73902E-02 13648   0.877E+00    0.211E-01
DAV:   2    -0.305587716241E+02   -0.28240E-02   -0.31241E-02 10752   0.142E+00    0.214E-01
DAV:   3    -0.305584310264E+02    0.34060E-03   -0.26903E-03 11072   0.680E-01    0.117E-01
DAV:   4    -0.305584925168E+02   -0.61490E-04   -0.16952E-03 11680   0.653E-01    0.168E-01
DAV:   5    -0.305582940154E+02    0.19850E-03   -0.91048E-04 11440   0.447E-01    0.233E-02
DAV:   6    -0.305582889791E+02    0.50363E-05   -0.54701E-05 11440   0.589E-02    0.648E-03
DAV:   7    -0.305582888794E+02    0.99635E-07   -0.45198E-06 11312   0.234E-02    0.313E-03
DAV:   8    -0.305582888738E+02    0.56116E-08   -0.30739E-07 12112   0.586E-03    0.834E-04
DAV:   9    -0.305582888640E+02    0.98571E-08   -0.29836E-08  8656   0.157E-03
  20 F= -.30558289E+02 E0= -.30558389E+02  d E =-.134315E-02  mag=    -0.0000
 curvature:  -1.00 expect dE=-0.396E-03 dE for cont linesearch -0.236E-07
 trial: gam= 0.09574 g(F)=  0.113E-03 g(S)=  0.281E-03 ort = 0.103E-04 (trialstep = 0.131E+01)
 search vector abs. value=  0.438E-03
 bond charge predicted
       N       E                     dE             d eps       ncg     rms          rms(c)
DAV:   1    -0.305541566722E+02    0.41322E-02   -0.17901E-01 12752   0.126E+01    0.409E-01
DAV:   2    -0.305594574533E+02   -0.53008E-02   -0.73692E-02  9984   0.213E+00    0.261E-01
DAV:   3    -0.305603376880E+02   -0.88023E-03   -0.12538E-02 12592   0.172E+00    0.494E-01
DAV:   4    -0.305587996404E+02    0.15380E-02   -0.99664E-03 11584   0.149E+00    0.140E-01
DAV:   5    -0.305586884349E+02    0.11121E-03   -0.13780E-03 12304   0.461E-01    0.698E-02
DAV:   6    -0.305586340499E+02    0.54385E-04   -0.18423E-04 11120   0.160E-01    0.122E-02
DAV:   7    -0.305586335187E+02    0.53126E-06   -0.11791E-05 12032   0.367E-02    0.554E-03
DAV:   8    -0.305586336899E+02   -0.17124E-06   -0.13992E-06 10960   0.143E-02    0.172E-03
DAV:   9    -0.305586337275E+02   -0.37560E-07   -0.11612E-07 13024   0.312E-03    0.667E-04
DAV:  10    -0.305586337293E+02   -0.18390E-08   -0.12665E-08  5664   0.144E-03
  21 F= -.30558634E+02 E0= -.30558777E+02  d E =-.344865E-03  mag=     0.0000
 trial-energy change:   -0.000345  1 .order   -0.000307   -0.000516   -0.000098
 step:   1.4947(harm=  1.6119)  dis= 0.00275  next Energy=   -30.558641 (dE=-0.352E-03)
 bond charge predicted
       N       E                     dE             d eps       ncg     rms          rms(c)
DAV:   1    -0.305585494065E+02    0.84321E-04   -0.37385E-03 12736   0.182E+00    0.593E-02
DAV:   2    -0.305586610141E+02   -0.11161E-03   -0.15506E-03  9968   0.314E-01    0.382E-02
DAV:   3    -0.305586794765E+02   -0.18462E-04   -0.26929E-04 12960   0.252E-01    0.711E-02
DAV:   4    -0.305586467941E+02    0.32682E-04   -0.19960E-04 11568   0.219E-01    0.196E-02
DAV:   5    -0.305586448665E+02    0.19276E-05   -0.28083E-05 12192   0.652E-02    0.102E-02
DAV:   6    -0.305586436236E+02    0.12429E-05   -0.39053E-06 11152   0.235E-02    0.175E-03
DAV:   7    -0.305586436105E+02    0.13157E-07   -0.24770E-07 12016   0.532E-03    0.806E-04
DAV:   8    -0.305586436179E+02   -0.74506E-08   -0.28091E-08  7600   0.210E-03
  22 F= -.30558644E+02 E0= -.30558793E+02  d E =-.354754E-03  mag=     0.0000
 curvature:  -0.76 expect dE=-0.406E-04 dE for cont linesearch -0.155E-05
 trial: gam= 0.05806 g(F)=  0.102E-04 g(S)=  0.431E-04 ort = 0.299E-04 (trialstep = 0.134E+01)
 search vector abs. value=  0.582E-04
 bond charge predicted
       N       E                     dE             d eps       ncg     rms          rms(c)
DAV:   1    -0.305633074784E+02   -0.46639E-02   -0.48784E-02 10512   0.419E+00    0.753E-01
DAV:   2    -0.305770768106E+02   -0.13769E-01   -0.12024E-01 11264   0.376E+00    0.124E+00
DAV:   3    -0.305586968850E+02    0.18380E-01   -0.55146E-02 11168   0.261E+00    0.996E-02
DAV:   4    -0.305587683376E+02   -0.71453E-04   -0.14888E-03 11888   0.437E-01    0.136E-01
DAV:   5    -0.305586694497E+02    0.98888E-04   -0.74485E-04 11744   0.430E-01    0.524E-02
DAV:   6    -0.305586481638E+02    0.21286E-04   -0.89232E-05 11200   0.117E-01    0.776E-03
DAV:   7    -0.305586469652E+02    0.11986E-05   -0.50359E-06 10656   0.171E-02    0.196E-03
DAV:   8    -0.305586467682E+02    0.19701E-06   -0.48244E-07 11040   0.687E-03    0.121E-03
DAV:   9    -0.305586467043E+02    0.63868E-07   -0.11395E-07 10064   0.389E-03    0.613E-04
DAV:  10    -0.305586466559E+02    0.48416E-07   -0.14888E-08  5632   0.157E-03    0.144E-04
DAV:  11    -0.305586466468E+02    0.91186E-08   -0.20522E-09  5144   0.439E-04
  23 F= -.30558647E+02 E0= -.30558795E+02  d E =-.302886E-05  mag=     0.0000
 trial-energy change:   -0.000003  1 .order    0.000001   -0.000074    0.000075
 step:   0.7157(harm=  0.6653)  dis= 0.00032  next Energy=   -30.558664 (dE=-0.202E-04)
 bond charge predicted
       N       E                     dE             d eps       ncg     rms          rms(c)
DAV:   1    -0.305596774539E+02   -0.10308E-02   -0.10644E-02 10512   0.196E+00    0.349E-01
DAV:   2    -0.305626244934E+02   -0.29470E-02   -0.25931E-02 11264   0.174E+00    0.585E-01
DAV:   3    -0.305586767107E+02    0.39478E-02   -0.12198E-02 11184   0.121E+00    0.536E-02
DAV:   4    -0.305587119724E+02   -0.35262E-04   -0.46104E-04 12768   0.279E-01    0.869E-02
DAV:   5    -0.305586665669E+02    0.45406E-04   -0.24194E-04 11568   0.245E-01    0.211E-02
DAV:   6    -0.305586638097E+02    0.27572E-05   -0.16845E-05 10752   0.396E-02    0.372E-03
DAV:   7    -0.305586639371E+02   -0.12743E-06   -0.11066E-06 11200   0.105E-02    0.134E-03
DAV:   8    -0.305586640085E+02   -0.71421E-07   -0.11568E-07 10720   0.446E-03    0.306E-04
DAV:   9    -0.305586640455E+02   -0.36973E-07   -0.76457E-09  5728   0.983E-04    0.200E-04
DAV:  10    -0.305586640589E+02   -0.13397E-07   -0.17134E-09  5232   0.562E-04    0.350E-05
DAV:  11    -0.305586640667E+02   -0.77707E-08   -0.47438E-10  4976   0.170E-04
  24 F= -.30558664E+02 E0= -.30558813E+02  d E =-.204487E-04  mag=    -0.0000
 curvature:  -0.35 expect dE=-0.493E-05 dE for cont linesearch -0.573E-07
 trial: gam= 0.35521 g(F)=  0.300E-05 g(S)=  0.111E-04 ort =-0.309E-05 (trialstep = 0.122E+01)
 search vector abs. value=  0.192E-04
 reached required accuracy - stopping structural energy minimisation
 writing wavefunctions
