       N       E                     dE             d eps       ncg     rms          rms(c)
DAV:   1     0.129747968878E+03    0.12975E+03   -0.12415E+04  6096   0.105E+03
DAV:   2    -0.114972991452E+02   -0.14125E+03   -0.13571E+03  5308   0.298E+02
DAV:   3    -0.152054433439E+02   -0.37081E+01   -0.36820E+01  6200   0.557E+01
DAV:   4    -0.152645219466E+02   -0.59079E-01   -0.59059E-01  5812   0.680E+00
DAV:   5    -0.152663925812E+02   -0.18706E-02   -0.18706E-02  6128   0.126E+00    0.182E+01
DAV:   6    -0.231026667813E+02   -0.78363E+01   -0.90668E+01  5708   0.128E+02    0.239E+01
DAV:   7    -0.136522198377E+02    0.94504E+01   -0.17671E+01  5940   0.800E+01    0.453E+00
DAV:   8    -0.134460061051E+02    0.20621E+00   -0.17458E+00  7124   0.161E+01    0.149E+00
DAV:   9    -0.134355488616E+02    0.10457E-01   -0.24801E-01  5944   0.670E+00    0.116E+00
DAV:  10    -0.134196720949E+02    0.15877E-01   -0.67203E-02  6556   0.359E+00    0.197E-01
DAV:  11    -0.134198015451E+02   -0.12945E-03   -0.17895E-03  5840   0.303E-01    0.197E-01
DAV:  12    -0.134193379512E+02    0.46359E-03   -0.94944E-04  7372   0.352E-01    0.478E-02
DAV:  13    -0.134193184909E+02    0.19460E-04   -0.12688E-04  7848   0.128E-01    0.638E-03
DAV:  14    -0.134193182966E+02    0.19426E-06   -0.45117E-06  6652   0.195E-02    0.873E-03
DAV:  15    -0.134193173919E+02    0.90477E-06   -0.13459E-06  6216   0.157E-02    0.239E-03
DAV:  16    -0.134193172625E+02    0.12939E-06   -0.20866E-07  7876   0.506E-03    0.349E-04
DAV:  17    -0.134193172434E+02    0.19080E-07   -0.63418E-09  3292   0.724E-04    0.705E-05
DAV:  18    -0.134193172423E+02    0.11196E-08   -0.14207E-09  3180   0.352E-04
   1 F= -.13419317E+02 E0= -.13419166E+02  d E =-.134193E+02  mag=    -0.0000
       N       E                     dE             d eps       ncg     rms          rms(c)
DAV:   1    -0.963679089226E+02   -0.82949E+02   -0.12608E+03  5384   0.585E+02    0.643E+01
DAV:   2    -0.258598544269E+02    0.70508E+02   -0.34760E+02  5964   0.176E+02    0.290E+01
DAV:   3    -0.293951450281E+02   -0.35353E+01   -0.19469E+02  5664   0.135E+02    0.306E+01
DAV:   4    -0.144745478260E+02    0.14921E+02   -0.36957E+01  6568   0.832E+01    0.290E+00
DAV:   5    -0.143944165432E+02    0.80131E-01   -0.33264E+00  5784   0.215E+01    0.712E+00
DAV:   6    -0.138896680098E+02    0.50475E+00   -0.21987E+00  6748   0.144E+01    0.319E+00
DAV:   7    -0.138023853031E+02    0.87283E-01   -0.13250E-01  6016   0.240E+00    0.172E+00
DAV:   8    -0.137780156486E+02    0.24370E-01   -0.45759E-02  7296   0.190E+00    0.529E-01
DAV:   9    -0.137760499857E+02    0.19657E-02   -0.96464E-03  7176   0.965E-01    0.343E-02
DAV:  10    -0.137760855675E+02   -0.35582E-04   -0.14201E-04  5588   0.985E-02    0.440E-02
DAV:  11    -0.137760744378E+02    0.11130E-04   -0.67477E-05  5896   0.937E-02    0.397E-03
DAV:  12    -0.137760752908E+02   -0.85293E-06   -0.40752E-06  6460   0.203E-02    0.646E-03
DAV:  13    -0.137760751344E+02    0.15635E-06   -0.60865E-07  6044   0.777E-03    0.182E-03
DAV:  14    -0.137760751538E+02   -0.19391E-07   -0.27858E-07  7308   0.494E-03    0.121E-03
DAV:  15    -0.137760751273E+02    0.26487E-07   -0.22481E-08  2932   0.154E-03    0.432E-04
DAV:  16    -0.137760751105E+02    0.16812E-07   -0.60696E-09  2772   0.532E-04    0.431E-05
DAV:  17    -0.137760751095E+02    0.10455E-08   -0.76012E-10  2728   0.229E-04
   2 F= -.13776075E+02 E0= -.13775689E+02  d E =-.356758E+00  mag=    -0.0000
       N       E                     dE             d eps       ncg     rms          rms(c)
DAV:   1    -0.551167872513E+02   -0.41341E+02   -0.35753E+02  5744   0.219E+02    0.705E+01
DAV:   2    -0.117319401823E+03   -0.62203E+02   -0.14327E+03  5608   0.381E+02    0.532E+01
DAV:   3    -0.325119720452E+02    0.84807E+02   -0.21937E+02  5600   0.142E+02    0.253E+01
DAV:   4    -0.270346950629E+02    0.54773E+01   -0.55408E+00  5892   0.267E+01    0.218E+01
DAV:   5    -0.221861404962E+02    0.48486E+01   -0.20847E+00  5792   0.116E+01    0.196E+01
DAV:   6    -0.218831293224E+02    0.30301E+00   -0.60227E+01  6456   0.112E+02    0.316E+01
DAV:   7    -0.159611457300E+02    0.59220E+01   -0.10634E+01  6280   0.254E+01    0.147E+01
DAV:   8    -0.175761362367E+02   -0.16150E+01   -0.12303E+00  7632   0.876E+00    0.204E+01
DAV:   9    -0.160905178438E+02    0.14856E+01   -0.95992E-01  5960   0.824E+00    0.148E+01
DAV:  10    -0.143176693865E+02    0.17728E+01   -0.66099E+00  6216   0.245E+01    0.836E-01
DAV:  11    -0.143489376100E+02   -0.31268E-01   -0.24464E-01  7104   0.375E+00    0.206E+00
DAV:  12    -0.143655656809E+02   -0.16628E-01   -0.19856E-02  6312   0.111E+00    0.233E+00
DAV:  13    -0.143195667769E+02    0.45999E-01   -0.75566E-02  5680   0.358E+00    0.868E-01
DAV:  14    -0.143174944770E+02    0.20723E-02   -0.22391E-03  5736   0.305E-01    0.753E-01
DAV:  15    -0.143132270764E+02    0.42674E-02   -0.32843E-03  6776   0.614E-01    0.433E-01
DAV:  16    -0.143119540387E+02    0.12730E-02   -0.96138E-04  7848   0.280E-01    0.275E-01
DAV:  17    -0.143117738393E+02    0.18020E-03   -0.70134E-05  7540   0.652E-02    0.249E-01
DAV:  18    -0.143111860739E+02    0.58777E-03   -0.94409E-04  6640   0.339E-01    0.693E-02
DAV:  19    -0.143111398015E+02    0.46272E-04   -0.87496E-05  7960   0.788E-02    0.245E-02
DAV:  20    -0.143111319216E+02    0.78798E-05   -0.10076E-05  7844   0.252E-02    0.895E-03
DAV:  21    -0.143111306894E+02    0.12322E-05   -0.29350E-06  7932   0.143E-02    0.626E-04
DAV:  22    -0.143111306851E+02    0.43206E-08   -0.16613E-07  6600   0.258E-03    0.851E-04
DAV:  23    -0.143111306869E+02   -0.18049E-08   -0.28690E-08  3504   0.187E-03
   3 F= -.14311131E+02 E0= -.14311000E+02  d E =-.891813E+00  mag=     0.0000
       N       E                     dE             d eps       ncg     rms          rms(c)
DAV:   1    -0.143141881982E+02   -0.30575E-02   -0.22391E-02  5628   0.210E+00    0.627E-01
DAV:   2    -0.143304006178E+02   -0.16212E-01   -0.12790E-01  5688   0.443E+00    0.140E+00
DAV:   3    -0.143112155829E+02    0.19185E-01   -0.65020E-02  5672   0.328E+00    0.544E-02
DAV:   4    -0.143112209277E+02   -0.53448E-05   -0.58303E-04  5512   0.146E-01    0.436E-02
DAV:   5    -0.143112089515E+02    0.11976E-04   -0.43633E-05  6168   0.801E-02    0.476E-03
DAV:   6    -0.143112087898E+02    0.16167E-06   -0.11563E-06  5696   0.114E-02    0.162E-03
DAV:   7    -0.143112087492E+02    0.40600E-07   -0.13542E-07  7276   0.378E-03    0.483E-04
DAV:   8    -0.143112087066E+02    0.42607E-07   -0.60782E-09  3120   0.623E-04    0.235E-04
DAV:   9    -0.143112086951E+02    0.11496E-07   -0.12274E-09  2860   0.312E-04    0.687E-05
DAV:  10    -0.143112086885E+02    0.66484E-08   -0.25044E-10  2672   0.116E-04
   4 F= -.14311209E+02 E0= -.14311058E+02  d E =-.891891E+00  mag=    -0.0000
       N       E                     dE             d eps       ncg     rms          rms(c)
DAV:   1    -0.145789457293E+02   -0.26774E+00   -0.53840E+00  5816   0.204E+01    0.436E+00
DAV:   2    -0.146878373529E+02   -0.10889E+00   -0.25718E+00  5824   0.180E+01    0.550E+00
DAV:   3    -0.143791723158E+02    0.30867E+00   -0.12696E+00  5688   0.155E+01    0.139E+00
DAV:   4    -0.143554180858E+02    0.23754E-01   -0.62350E-02  6664   0.207E+00    0.322E-01
DAV:   5    -0.143545281494E+02    0.88994E-03   -0.71653E-03  6112   0.921E-01    0.126E-01
DAV:   6    -0.143544274878E+02    0.10066E-03   -0.90122E-04  5992   0.368E-01    0.327E-02
DAV:   7    -0.143544255377E+02    0.19501E-05   -0.53137E-05  6384   0.864E-02    0.919E-03
DAV:   8    -0.143544246701E+02    0.86761E-06   -0.40680E-06  7112   0.244E-02    0.162E-03
DAV:   9    -0.143544246304E+02    0.39649E-07   -0.25180E-07  7452   0.521E-03    0.789E-04
DAV:  10    -0.143544245912E+02    0.39261E-07   -0.24835E-08  3504   0.213E-03    0.179E-04
DAV:  11    -0.143544245853E+02    0.58972E-08   -0.33408E-09  2880   0.643E-04
   5 F= -.14354425E+02 E0= -.14354511E+02  d E =-.432159E-01  mag=    -0.0000
       N       E                     dE             d eps       ncg     rms          rms(c)
DAV:   1    -0.145502141742E+02   -0.19579E+00   -0.43230E+00  5800   0.186E+01    0.373E+00
DAV:   2    -0.146170304618E+02   -0.66816E-01   -0.19305E+00  5744   0.161E+01    0.473E+00
DAV:   3    -0.143927954254E+02    0.22424E+00   -0.92723E-01  5680   0.133E+01    0.134E+00
DAV:   4    -0.143691834698E+02    0.23612E-01   -0.68035E-02  7032   0.223E+00    0.205E-01
DAV:   5    -0.143689613434E+02    0.22213E-03   -0.33664E-03  5872   0.640E-01    0.745E-02
DAV:   6    -0.143689384118E+02    0.22932E-04   -0.31886E-04  6016   0.212E-01    0.189E-02
DAV:   7    -0.143689396496E+02   -0.12377E-05   -0.20552E-05  7184   0.500E-02    0.695E-03
DAV:   8    -0.143689391921E+02    0.45742E-06   -0.21350E-06  6264   0.185E-02    0.104E-03
DAV:   9    -0.143689391676E+02    0.24536E-07   -0.69514E-08  6472   0.246E-03    0.316E-04
DAV:  10    -0.143689391458E+02    0.21838E-07   -0.49294E-09  2864   0.796E-04    0.932E-05
DAV:  11    -0.143689391436E+02    0.21259E-08   -0.93900E-10  2736   0.355E-04
   6 F= -.14368939E+02 E0= -.14368990E+02  d E =-.577305E-01  mag=    -0.0000
       N       E                     dE             d eps       ncg     rms          rms(c)
DAV:   1    -0.143701732077E+02   -0.12341E-02   -0.27281E-02  5776   0.151E+00    0.292E-01
DAV:   2    -0.143706470429E+02   -0.47384E-03   -0.11319E-02  5776   0.133E+00    0.396E-01
DAV:   3    -0.143691882914E+02    0.14588E-02   -0.63177E-03  5676   0.104E+00    0.112E-01
DAV:   4    -0.143690215729E+02    0.16672E-03   -0.50906E-04  7152   0.208E-01    0.124E-02
DAV:   5    -0.143690211312E+02    0.44163E-06   -0.14780E-05  5760   0.404E-02    0.454E-03
DAV:   6    -0.143690210522E+02    0.79044E-07   -0.98093E-07  6280   0.106E-02    0.113E-03
DAV:   7    -0.143690210531E+02   -0.90313E-09   -0.51222E-08  6388   0.208E-03
   7 F= -.14369021E+02 E0= -.14369075E+02  d E =-.578124E-01  mag=    -0.0000
       N       E                     dE             d eps       ncg     rms          rms(c)
DAV:   1    -0.143976962163E+02   -0.28675E-01   -0.68523E-01  5728   0.730E+00    0.136E+00
DAV:   2    -0.143989303028E+02   -0.12341E-02   -0.18042E-01  5760   0.524E+00    0.156E+00
DAV:   3    -0.143768819022E+02    0.22048E-01   -0.10451E-01  5752   0.429E+00    0.595E-01
DAV:   4    -0.143722606885E+02    0.46212E-02   -0.11693E-02  6784   0.102E+00    0.641E-02
DAV:   5    -0.143722413659E+02    0.19323E-04   -0.43487E-04  5760   0.210E-01    0.239E-02
DAV:   6    -0.143722397765E+02    0.15894E-05   -0.25616E-05  6124   0.524E-02    0.477E-03
DAV:   7    -0.143722400629E+02   -0.28641E-06   -0.12609E-06  6888   0.100E-02    0.183E-03
DAV:   8    -0.143722400522E+02    0.10710E-07   -0.65702E-08  5688   0.251E-03    0.168E-04
DAV:   9    -0.143722400359E+02    0.16313E-07   -0.31580E-09  2828   0.660E-04    0.873E-05
DAV:  10    -0.143722400321E+02    0.38312E-08   -0.64239E-10  2728   0.266E-04
   8 F= -.14372240E+02 E0= -.14372368E+02  d E =-.321898E-02  mag=     0.0000
       N       E                     dE             d eps       ncg     rms          rms(c)
DAV:   1    -0.143730103050E+02   -0.77027E-03   -0.17336E-02  5728   0.117E+00    0.217E-01
DAV:   2    -0.143730670094E+02   -0.56704E-04   -0.45675E-03  5740   0.865E-01    0.258E-01
DAV:   3    -0.143724775273E+02    0.58948E-03   -0.28114E-03  5704   0.694E-01    0.949E-02
DAV:   4    -0.143723582159E+02    0.11931E-03   -0.29709E-04  6740   0.168E-01    0.980E-03
DAV:   5    -0.143723577993E+02    0.41656E-06   -0.10471E-05  5712   0.318E-02    0.362E-03
DAV:   6    -0.143723577845E+02    0.14856E-07   -0.56078E-07  6168   0.750E-03    0.748E-04
DAV:   7    -0.143723577864E+02   -0.19386E-08   -0.27971E-08  5056   0.148E-03
   9 F= -.14372358E+02 E0= -.14372473E+02  d E =-.333673E-02  mag=     0.0000
       N       E                     dE             d eps       ncg     rms          rms(c)
DAV:   1    -0.143730432084E+02   -0.68542E-03   -0.57921E-03  5752   0.105E+00    0.287E-01
DAV:   2    -0.143758216436E+02   -0.27784E-02   -0.24992E-02  5712   0.203E+00    0.587E-01
DAV:   3    -0.143723661156E+02    0.34555E-02   -0.12351E-02  5696   0.146E+00    0.324E-02
DAV:   4    -0.143723626052E+02    0.35103E-05   -0.10523E-04  5416   0.660E-02    0.141E-02
DAV:   5    -0.143723616573E+02    0.94790E-06   -0.56106E-06  6376   0.286E-02    0.204E-03
DAV:   6    -0.143723616471E+02    0.10276E-07   -0.28897E-07  5608   0.667E-03    0.104E-03
DAV:   7    -0.143723616314E+02    0.15693E-07   -0.46511E-08  5152   0.273E-03    0.149E-04
DAV:   8    -0.143723616085E+02    0.22917E-07   -0.17871E-09  2664   0.367E-04    0.823E-05
DAV:   9    -0.143723616053E+02    0.31532E-08   -0.30785E-10  2624   0.164E-04
  10 F= -.14372362E+02 E0= -.14372485E+02  d E =-.381887E-05  mag=     0.0000
       N       E                     dE             d eps       ncg     rms          rms(c)
DAV:   1    -0.143724309326E+02   -0.69324E-04   -0.57586E-04  5752   0.333E-01    0.904E-02
DAV:   2    -0.143727046449E+02   -0.27371E-03   -0.24690E-03  5712   0.638E-01    0.186E-01
DAV:   3    -0.143723639154E+02    0.34073E-03   -0.12413E-03  5696   0.458E-01    0.107E-02
DAV:   4    -0.143723629791E+02    0.93626E-06   -0.10289E-05  5392   0.216E-02    0.405E-03
DAV:   5    -0.143723627750E+02    0.20413E-06   -0.46249E-07  6456   0.799E-03    0.648E-04
DAV:   6    -0.143723627620E+02    0.13051E-07   -0.26967E-08  5360   0.206E-03    0.351E-04
DAV:   7    -0.143723627620E+02   -0.62755E-10   -0.46754E-09  2656   0.882E-04
  11 F= -.14372363E+02 E0= -.14372484E+02  d E =-.497559E-05  mag=     0.0000
