       N       E                     dE             d eps       ncg     rms          rms(c)
DAV:   1     0.619101526118E+03    0.61910E+03   -0.31947E+04  7840   0.174E+03
DAV:   2     0.616816201906E+01   -0.61293E+03   -0.59129E+03  6756   0.552E+02
DAV:   3    -0.296417104320E+02   -0.35810E+02   -0.34109E+02  7456   0.151E+02
DAV:   4    -0.306867851885E+02   -0.10451E+01   -0.10371E+01  7360   0.244E+01
DAV:   5    -0.307128760230E+02   -0.26091E-01   -0.26088E-01  7740   0.409E+00    0.236E+01
DAV:   6    -0.418133574315E+02   -0.11100E+02   -0.10803E+02  8000   0.138E+02    0.340E+01
DAV:   7    -0.256539027875E+02    0.16159E+02   -0.41223E+01  7760   0.881E+01    0.672E+00
DAV:   8    -0.260626779756E+02   -0.40878E+00   -0.58677E+00  8960   0.315E+01    0.108E+01
DAV:   9    -0.256662393439E+02    0.39644E+00   -0.24638E+00  7544   0.205E+01    0.312E+00
DAV:  10    -0.255881027471E+02    0.78137E-01   -0.40091E-01  7944   0.658E+00    0.753E-01
DAV:  11    -0.255879817238E+02    0.12102E-03   -0.16632E-02  7244   0.134E+00    0.346E-01
DAV:  12    -0.255865517821E+02    0.14299E-02   -0.29825E-03  8864   0.555E-01    0.115E-01
DAV:  13    -0.255865547502E+02   -0.29681E-05   -0.49898E-04  8372   0.197E-01    0.440E-02
DAV:  14    -0.255865761814E+02   -0.21431E-04   -0.75176E-05  7608   0.775E-02    0.313E-02
DAV:  15    -0.255865713783E+02    0.48031E-05   -0.25456E-05  7584   0.553E-02    0.104E-02
DAV:  16    -0.255865712394E+02    0.13893E-06   -0.21375E-06  7596   0.120E-02    0.690E-03
DAV:  17    -0.255865705663E+02    0.67313E-06   -0.71955E-07  8524   0.102E-02    0.307E-03
DAV:  18    -0.255865705161E+02    0.50173E-07   -0.21770E-07  8976   0.457E-03    0.108E-03
DAV:  19    -0.255865705211E+02   -0.49677E-08   -0.42925E-08  5408   0.191E-03
   1 F= -.25586571E+02 E0= -.25586775E+02  d E =-.255866E+02  mag=     0.0000
       N       E                     dE             d eps       ncg     rms          rms(c)
DAV:   1    -0.112185755629E+03   -0.86599E+02   -0.10681E+03  6856   0.494E+02    0.735E+01
DAV:   2    -0.684135303245E+02    0.43772E+02   -0.62315E+02  7844   0.248E+02    0.560E+01
DAV:   3    -0.389566440373E+02    0.29457E+02   -0.34272E+02  7692   0.172E+02    0.300E+01
DAV:   4    -0.301148050266E+02    0.88418E+01   -0.44657E+01  7424   0.719E+01    0.177E+01
DAV:   5    -0.270525463860E+02    0.30623E+01   -0.73913E+00  7996   0.389E+01    0.821E+00
DAV:   6    -0.268314160416E+02    0.22113E+00   -0.50741E+00  8412   0.374E+01    0.117E+01
DAV:   7    -0.262000425914E+02    0.63137E+00   -0.41885E+00  7744   0.173E+01    0.245E+00
DAV:   8    -0.261682342246E+02    0.31808E-01   -0.22664E-01  7284   0.427E+00    0.172E+00
DAV:   9    -0.261509369189E+02    0.17297E-01   -0.77678E-02  7856   0.396E+00    0.498E-01
DAV:  10    -0.261484590207E+02    0.24779E-02   -0.94515E-03  7900   0.832E-01    0.118E-01
DAV:  11    -0.261484494573E+02    0.95634E-05   -0.12031E-03  8244   0.318E-01    0.819E-02
DAV:  12    -0.261484261179E+02    0.23339E-04   -0.19632E-04  7684   0.144E-01    0.685E-02
DAV:  13    -0.261483981340E+02    0.27984E-04   -0.13995E-04  8136   0.151E-01    0.137E-02
DAV:  14    -0.261483979208E+02    0.21315E-06   -0.11304E-05  7164   0.251E-02    0.131E-02
DAV:  15    -0.261483970226E+02    0.89819E-06   -0.44130E-06  7388   0.223E-02    0.532E-03
DAV:  16    -0.261483969273E+02    0.95368E-07   -0.75963E-07  8576   0.981E-03    0.174E-03
DAV:  17    -0.261483969051E+02    0.22192E-07   -0.14024E-07  6788   0.329E-03    0.119E-03
DAV:  18    -0.261483969012E+02    0.38908E-08   -0.24549E-08  3556   0.224E-03
   2 F= -.26148397E+02 E0= -.26148957E+02  d E =-.561826E+00  mag=     0.0000
       N       E                     dE             d eps       ncg     rms          rms(c)
DAV:   1    -0.412357909377E+02   -0.15087E+02   -0.14460E+02  7192   0.156E+02    0.399E+01
DAV:   2    -0.615724830701E+02   -0.20337E+02   -0.24567E+02  7592   0.204E+02    0.420E+01
DAV:   3    -0.270491004714E+02    0.34523E+02   -0.95480E+01  7624   0.113E+02    0.658E+00
DAV:   4    -0.264736553138E+02    0.57545E+00   -0.41114E+00  7984   0.208E+01    0.442E+00
DAV:   5    -0.269662051194E+02   -0.49255E+00   -0.31883E+00  8388   0.279E+01    0.119E+01
DAV:   6    -0.263934024043E+02    0.57280E+00   -0.46839E+00  8344   0.177E+01    0.224E+00
DAV:   7    -0.263164041692E+02    0.76998E-01   -0.17996E-01  7960   0.458E+00    0.487E-01
DAV:   8    -0.263149483135E+02    0.14559E-02   -0.18716E-02  8296   0.116E+00    0.239E-01
DAV:   9    -0.263147305249E+02    0.21779E-03   -0.53343E-03  7840   0.739E-01    0.193E-01
DAV:  10    -0.263144321364E+02    0.29839E-03   -0.21847E-03  7736   0.507E-01    0.686E-02
DAV:  11    -0.263143979220E+02    0.34214E-04   -0.31550E-04  7672   0.212E-01    0.296E-02
DAV:  12    -0.263143873002E+02    0.10622E-04   -0.24736E-05  8168   0.528E-02    0.435E-03
DAV:  13    -0.263143872459E+02    0.54315E-07   -0.26842E-06  9336   0.146E-02    0.462E-03
DAV:  14    -0.263143871237E+02    0.12215E-06   -0.70076E-07  7976   0.926E-03    0.465E-04
DAV:  15    -0.263143871229E+02    0.81673E-09   -0.24364E-08  5928   0.115E-03
   3 F= -.26314387E+02 E0= -.26314538E+02  d E =-.727817E+00  mag=     0.0000
       N       E                     dE             d eps       ncg     rms          rms(c)
DAV:   1    -0.281032652535E+02   -0.17889E+01   -0.29313E+01  7168   0.126E+02    0.152E+01
DAV:   2    -0.321041517998E+02   -0.40009E+01   -0.37988E+01  7864   0.780E+01    0.202E+01
DAV:   3    -0.264788357782E+02    0.56253E+01   -0.17112E+01  7824   0.506E+01    0.235E+00
DAV:   4    -0.266194143323E+02   -0.14058E+00   -0.13607E+00  9696   0.154E+01    0.534E+00
DAV:   5    -0.264453077329E+02    0.17411E+00   -0.69234E-01  8168   0.132E+01    0.115E+00
DAV:   6    -0.264360398327E+02    0.92679E-02   -0.69829E-02  7164   0.242E+00    0.294E-01
DAV:   7    -0.264352317402E+02    0.80809E-03   -0.46434E-03  7932   0.746E-01    0.766E-02
DAV:   8    -0.264352302070E+02    0.15332E-05   -0.26552E-04  7692   0.172E-01    0.210E-02
DAV:   9    -0.264352288227E+02    0.13843E-05   -0.20863E-05  7808   0.418E-02    0.108E-02
DAV:  10    -0.264352268309E+02    0.19918E-05   -0.51441E-06  8460   0.245E-02    0.197E-03
DAV:  11    -0.264352266475E+02    0.18345E-06   -0.39891E-07  7568   0.605E-03    0.498E-04
DAV:  12    -0.264352265873E+02    0.60176E-07   -0.20254E-08  5260   0.153E-03    0.242E-04
DAV:  13    -0.264352265806E+02    0.66684E-08   -0.37235E-09  3656   0.746E-04
   4 F= -.26435227E+02 E0= -.26435385E+02  d E =-.120839E+00  mag=    -0.0000
       N       E                     dE             d eps       ncg     rms          rms(c)
DAV:   1    -0.264827424891E+02   -0.47516E-01   -0.78449E-01  7160   0.205E+01    0.259E+00
DAV:   2    -0.266286084084E+02   -0.14587E+00   -0.13857E+00  7904   0.134E+01    0.404E+00
DAV:   3    -0.264393291830E+02    0.18928E+00   -0.55808E-01  7880   0.892E+00    0.416E-01
DAV:   4    -0.264392035095E+02    0.12567E-03   -0.15923E-02  8472   0.134E+00    0.470E-01
DAV:   5    -0.264382559698E+02    0.94754E-03   -0.97200E-03  7840   0.140E+00    0.262E-01
DAV:   6    -0.264377817817E+02    0.47419E-03   -0.15782E-03  8096   0.542E-01    0.299E-02
DAV:   7    -0.264377763038E+02    0.54780E-05   -0.10182E-04  7032   0.916E-02    0.100E-02
DAV:   8    -0.264377757768E+02    0.52695E-06   -0.39534E-06  7656   0.214E-02    0.313E-03
DAV:   9    -0.264377754518E+02    0.32499E-06   -0.28972E-07  7168   0.392E-03    0.964E-04
DAV:  10    -0.264377753796E+02    0.72199E-07   -0.29341E-08  5360   0.216E-03    0.275E-04
DAV:  11    -0.264377753477E+02    0.31936E-07   -0.55716E-09  3596   0.822E-04    0.863E-05
DAV:  12    -0.264377753436E+02    0.40855E-08   -0.10663E-09  3560   0.390E-04
   5 F= -.26437775E+02 E0= -.26437951E+02  d E =-.123388E+00  mag=    -0.0000
       N       E                     dE             d eps       ncg     rms          rms(c)
DAV:   1    -0.265681077957E+02   -0.13033E+00   -0.31844E+00  7904   0.367E+01    0.405E+00
DAV:   2    -0.268789675600E+02   -0.31086E+00   -0.34334E+00  7912   0.205E+01    0.624E+00
DAV:   3    -0.264709398002E+02    0.40803E+00   -0.14007E+00  7952   0.135E+01    0.156E+00
DAV:   4    -0.264846062938E+02   -0.13666E-01   -0.26861E-01  8024   0.783E+00    0.228E+00
DAV:   5    -0.264490222461E+02    0.35584E-01   -0.11913E-01  8400   0.501E+00    0.982E-02
DAV:   6    -0.264491152160E+02   -0.92970E-04   -0.52235E-03  7480   0.622E-01    0.624E-02
DAV:   7    -0.264490907191E+02    0.24497E-04   -0.14783E-04  9048   0.113E-01    0.335E-02
DAV:   8    -0.264490926722E+02   -0.19530E-05   -0.28252E-05  7520   0.465E-02    0.839E-03
DAV:   9    -0.264490931542E+02   -0.48205E-06   -0.28998E-06  6984   0.191E-02    0.212E-03
DAV:  10    -0.264490932204E+02   -0.66248E-07   -0.29097E-07  7404   0.746E-03    0.846E-04
DAV:  11    -0.264490932640E+02   -0.43548E-07   -0.52728E-08  6116   0.300E-03    0.381E-04
DAV:  12    -0.264490932586E+02    0.53969E-08   -0.47321E-09  3540   0.101E-03
   6 F= -.26449093E+02 E0= -.26448907E+02  d E =-.113179E-01  mag=    -0.0000
       N       E                     dE             d eps       ncg     rms          rms(c)
DAV:   1    -0.265809820432E+02   -0.13189E+00   -0.34728E+00  7920   0.385E+01    0.421E+00
DAV:   2    -0.269142772661E+02   -0.33330E+00   -0.36940E+00  7896   0.213E+01    0.640E+00
DAV:   3    -0.264773641856E+02    0.43691E+00   -0.14999E+00  7944   0.140E+01    0.166E+00
DAV:   4    -0.264920537735E+02   -0.14690E-01   -0.30102E-01  7984   0.829E+00    0.235E+00
DAV:   5    -0.264537609753E+02    0.38293E-01   -0.12507E-01  8480   0.512E+00    0.995E-02
DAV:   6    -0.264538905928E+02   -0.12962E-03   -0.55267E-03  7560   0.625E-01    0.651E-02
DAV:   7    -0.264538665586E+02    0.24034E-04   -0.14975E-04  9272   0.119E-01    0.340E-02
DAV:   8    -0.264538699124E+02   -0.33537E-05   -0.29402E-05  7428   0.502E-02    0.804E-03
DAV:   9    -0.264538703079E+02   -0.39549E-06   -0.24133E-06  7020   0.177E-02    0.219E-03
DAV:  10    -0.264538703733E+02   -0.65440E-07   -0.25886E-07  7968   0.729E-03    0.925E-04
DAV:  11    -0.264538704123E+02   -0.39014E-07   -0.53117E-08  6132   0.307E-03    0.385E-04
DAV:  12    -0.264538704084E+02    0.39236E-08   -0.46647E-09  3652   0.986E-04
   7 F= -.26453870E+02 E0= -.26453435E+02  d E =-.160951E-01  mag=    -0.0000
       N       E                     dE             d eps       ncg     rms          rms(c)
DAV:   1    -0.267635203311E+02   -0.30965E+00   -0.45046E+00  7240   0.230E+01    0.561E+00
DAV:   2    -0.272218643882E+02   -0.45834E+00   -0.49143E+00  7784   0.265E+01    0.789E+00
DAV:   3    -0.264788695736E+02    0.74299E+00   -0.22159E+00  7880   0.180E+01    0.143E+00
DAV:   4    -0.265389689888E+02   -0.60099E-01   -0.48581E-01  8328   0.986E+00    0.356E+00
DAV:   5    -0.264596004227E+02    0.79369E-01   -0.28965E-01  8080   0.860E+00    0.360E-01
DAV:   6    -0.264590104855E+02    0.58994E-03   -0.14850E-02  7104   0.952E-01    0.997E-02
DAV:   7    -0.264589806999E+02    0.29786E-04   -0.53044E-04  8496   0.289E-01    0.444E-02
DAV:   8    -0.264589797644E+02    0.93548E-06   -0.64473E-05  7500   0.111E-01    0.133E-02
DAV:   9    -0.264589779974E+02    0.17671E-05   -0.64289E-06  7724   0.381E-02    0.323E-03
DAV:  10    -0.264589775716E+02    0.42573E-06   -0.54506E-07  7520   0.758E-03    0.724E-04
DAV:  11    -0.264589775398E+02    0.31849E-07   -0.58472E-08  6180   0.300E-03    0.442E-04
DAV:  12    -0.264589775387E+02    0.10477E-08   -0.82680E-09  3752   0.131E-03
   8 F= -.26458978E+02 E0= -.26458533E+02  d E =-.510713E-02  mag=    -0.0000
       N       E                     dE             d eps       ncg     rms          rms(c)
DAV:   1    -0.264596853598E+02   -0.70782E-03   -0.10268E-02  7224   0.111E+00    0.266E-01
DAV:   2    -0.264606931308E+02   -0.10078E-02   -0.11564E-02  7752   0.126E+00    0.383E-01
DAV:   3    -0.264590433983E+02    0.16497E-02   -0.53064E-03  7864   0.852E-01    0.767E-02
DAV:   4    -0.264591747970E+02   -0.13140E-03   -0.11712E-03  8112   0.494E-01    0.176E-01
DAV:   5    -0.264589908146E+02    0.18398E-03   -0.72245E-04  7920   0.375E-01    0.160E-02
DAV:   6    -0.264589891209E+02    0.16936E-05   -0.27694E-05  7056   0.391E-02    0.398E-03
DAV:   7    -0.264589889792E+02    0.14171E-06   -0.92040E-07  8568   0.105E-02    0.208E-03
DAV:   8    -0.264589888463E+02    0.13291E-06   -0.10539E-07  7648   0.385E-03    0.319E-04
DAV:   9    -0.264589888286E+02    0.17746E-07   -0.74681E-09  3776   0.121E-03    0.158E-04
DAV:  10    -0.264589888160E+02    0.12587E-07   -0.14572E-09  3604   0.410E-04    0.357E-05
DAV:  11    -0.264589888154E+02    0.58208E-09   -0.36748E-10  3512   0.189E-04
   9 F= -.26458989E+02 E0= -.26458544E+02  d E =-.511841E-02  mag=    -0.0000
       N       E                     dE             d eps       ncg     rms          rms(c)
DAV:   1    -0.264449058931E+02    0.14083E-01   -0.16621E+00  7264   0.382E+01    0.214E+00
DAV:   2    -0.265502575533E+02   -0.10535E+00   -0.12308E+00  7784   0.118E+01    0.282E+00
DAV:   3    -0.264710718681E+02    0.79186E-01   -0.34894E-01  7864   0.707E+00    0.108E+00
DAV:   4    -0.264736402934E+02   -0.25684E-02   -0.10773E-01  7704   0.486E+00    0.132E+00
DAV:   5    -0.264608949868E+02    0.12745E-01   -0.40798E-02  8124   0.303E+00    0.123E-01
DAV:   6    -0.264608595958E+02    0.35391E-04   -0.23950E-03  7736   0.407E-01    0.374E-02
DAV:   7    -0.264608549888E+02    0.46070E-05   -0.11911E-04  8360   0.126E-01    0.237E-02
DAV:   8    -0.264608549028E+02    0.85947E-07   -0.17296E-05  7880   0.422E-02    0.628E-03
DAV:   9    -0.264608551259E+02   -0.22310E-06   -0.16780E-06  7452   0.165E-02    0.175E-03
DAV:  10    -0.264608551351E+02   -0.91259E-08   -0.13980E-07  8016   0.494E-03    0.331E-04
DAV:  11    -0.264608551583E+02   -0.23267E-07   -0.11629E-08  3840   0.128E-03    0.228E-04
DAV:  12    -0.264608551627E+02   -0.44110E-08   -0.18969E-09  3660   0.490E-04
  10 F= -.26460855E+02 E0= -.26460485E+02  d E =-.186635E-02  mag=    -0.0000
       N       E                     dE             d eps       ncg     rms          rms(c)
DAV:   1    -0.264606793306E+02    0.17583E-03   -0.20554E-02  7252   0.427E+00    0.236E-01
DAV:   2    -0.264619258283E+02   -0.12465E-02   -0.14757E-02  7764   0.130E+00    0.301E-01
DAV:   3    -0.264609809247E+02    0.94490E-03   -0.38981E-03  7840   0.768E-01    0.108E-01
DAV:   4    -0.264610458286E+02   -0.64904E-04   -0.13389E-03  7872   0.516E-01    0.160E-01
DAV:   5    -0.264608709697E+02    0.17486E-03   -0.61380E-04  7896   0.372E-01    0.135E-02
DAV:   6    -0.264608708327E+02    0.13701E-06   -0.32032E-05  7560   0.462E-02    0.406E-03
DAV:   7    -0.264608708196E+02    0.13131E-07   -0.14040E-06  8504   0.134E-02    0.250E-03
DAV:   8    -0.264608708548E+02   -0.35288E-07   -0.16684E-07  7544   0.408E-03    0.600E-04
DAV:   9    -0.264608708770E+02   -0.22192E-07   -0.13869E-08  3880   0.149E-03    0.178E-04
DAV:  10    -0.264608708818E+02   -0.47476E-08   -0.26462E-09  3596   0.708E-04
  11 F= -.26460871E+02 E0= -.26460509E+02  d E =-.188207E-02  mag=     0.0000
       N       E                     dE             d eps       ncg     rms          rms(c)
DAV:   1    -0.264434269981E+02    0.17444E-01   -0.52908E-01  7728   0.256E+01    0.842E-01
DAV:   2    -0.264737709512E+02   -0.30344E-01   -0.32584E-01  7320   0.512E+00    0.984E-01
DAV:   3    -0.264626392498E+02    0.11132E-01   -0.49541E-02  8052   0.267E+00    0.339E-01
DAV:   4    -0.264629981805E+02   -0.35893E-03   -0.10325E-02  8076   0.143E+00    0.491E-01
DAV:   5    -0.264615646089E+02    0.14336E-02   -0.77393E-03  7812   0.129E+00    0.103E-01
DAV:   6    -0.264614616378E+02    0.10297E-03   -0.44598E-04  9216   0.246E-01    0.245E-02
DAV:   7    -0.264614550810E+02    0.65569E-05   -0.53231E-05  7892   0.695E-02    0.120E-02
DAV:   8    -0.264614546001E+02    0.48084E-06   -0.84911E-06  7144   0.357E-02    0.394E-03
DAV:   9    -0.264614543970E+02    0.20310E-06   -0.58588E-07  7788   0.990E-03    0.106E-03
DAV:  10    -0.264614543562E+02    0.40867E-07   -0.52584E-08  6000   0.317E-03    0.308E-04
DAV:  11    -0.264614543449E+02    0.11236E-07   -0.80447E-09  3628   0.109E-03    0.805E-05
DAV:  12    -0.264614543431E+02    0.18554E-08   -0.12198E-09  3584   0.347E-04
  12 F= -.26461454E+02 E0= -.26461118E+02  d E =-.583461E-03  mag=     0.0000
       N       E                     dE             d eps       ncg     rms          rms(c)
DAV:   1    -0.264605477549E+02    0.90659E-03   -0.26779E-02  7648   0.576E+00    0.190E-01
DAV:   2    -0.264621071208E+02   -0.15594E-02   -0.16685E-02  7336   0.117E+00    0.222E-01
DAV:   3    -0.264615410251E+02    0.56610E-03   -0.26037E-03  8036   0.618E-01    0.835E-02
DAV:   4    -0.264615600038E+02   -0.18979E-04   -0.61893E-04  7936   0.358E-01    0.111E-01
DAV:   5    -0.264614796859E+02    0.80318E-04   -0.37174E-04  7848   0.276E-01    0.195E-02
DAV:   6    -0.264614753211E+02    0.43648E-05   -0.20324E-05  8192   0.471E-02    0.533E-03
DAV:   7    -0.264614748919E+02    0.42922E-06   -0.29475E-06  8052   0.162E-02    0.305E-03
DAV:   8    -0.264614748199E+02    0.71939E-07   -0.56502E-07  7200   0.873E-03    0.944E-04
DAV:   9    -0.264614747663E+02    0.53584E-07   -0.37152E-08  6048   0.243E-03    0.255E-04
DAV:  10    -0.264614747600E+02    0.63337E-08   -0.32042E-09  3616   0.864E-04
  13 F= -.26461475E+02 E0= -.26461142E+02  d E =-.603878E-03  mag=     0.0000
       N       E                     dE             d eps       ncg     rms          rms(c)
DAV:   1    -0.264643861320E+02   -0.29114E-02   -0.68718E-02  7264   0.746E+00    0.713E-01
DAV:   2    -0.264750119138E+02   -0.10626E-01   -0.10862E-01  7856   0.378E+00    0.108E+00
DAV:   3    -0.264618559319E+02    0.13156E-01   -0.46943E-02  7832   0.257E+00    0.235E-01
DAV:   4    -0.264618018355E+02    0.54096E-04   -0.41705E-03  8344   0.923E-01    0.193E-01
DAV:   5    -0.264615607100E+02    0.24113E-03   -0.73945E-04  7252   0.390E-01    0.510E-02
DAV:   6    -0.264615383308E+02    0.22379E-04   -0.85474E-05  7480   0.816E-02    0.103E-02
DAV:   7    -0.264615380535E+02    0.27726E-06   -0.68507E-06  7412   0.318E-02    0.413E-03
DAV:   8    -0.264615383375E+02   -0.28393E-06   -0.43262E-07  8220   0.783E-03    0.554E-04
DAV:   9    -0.264615383755E+02   -0.38006E-07   -0.35590E-08  6248   0.216E-03    0.362E-04
DAV:  10    -0.264615383875E+02   -0.12020E-07   -0.31323E-09  3648   0.700E-04    0.891E-05
DAV:  11    -0.264615383940E+02   -0.64847E-08   -0.87827E-10  3584   0.250E-04
  14 F= -.26461538E+02 E0= -.26461199E+02  d E =-.636340E-04  mag=     0.0000
       N       E                     dE             d eps       ncg     rms          rms(c)
DAV:   1    -0.264615485185E+02   -0.10131E-04   -0.24153E-04  7260   0.442E-01    0.422E-02
DAV:   2    -0.264615869330E+02   -0.38415E-04   -0.37390E-04  7852   0.223E-01    0.636E-02
DAV:   3    -0.264615399325E+02    0.47001E-04   -0.15729E-04  7812   0.150E-01    0.125E-02
DAV:   4    -0.264615399782E+02   -0.45728E-07   -0.13088E-05  8488   0.510E-02    0.119E-02
DAV:   5    -0.264615389466E+02    0.10315E-05   -0.28651E-06  7364   0.245E-02    0.296E-03
DAV:   6    -0.264615387500E+02    0.19660E-06   -0.30416E-07  7392   0.478E-03    0.605E-04
DAV:   7    -0.264615387282E+02    0.21870E-07   -0.20334E-08  4112   0.181E-03    0.237E-04
DAV:   8    -0.264615387068E+02    0.21337E-07   -0.29518E-09  3532   0.599E-04    0.420E-05
DAV:   9    -0.264615387070E+02   -0.16917E-09   -0.66394E-10  3480   0.263E-04
  15 F= -.26461539E+02 E0= -.26461200E+02  d E =-.639470E-04  mag=    -0.0000
       N       E                     dE             d eps       ncg     rms          rms(c)
DAV:   1    -0.264618350677E+02   -0.29636E-03   -0.24314E-02  7136   0.415E+00    0.315E-01
DAV:   2    -0.264636980799E+02   -0.18630E-02   -0.21404E-02  7756   0.164E+00    0.418E-01
DAV:   3    -0.264616747039E+02    0.20234E-02   -0.67936E-03  7832   0.971E-01    0.965E-02
DAV:   4    -0.264618227764E+02   -0.14807E-03   -0.15350E-03  8252   0.551E-01    0.207E-01
DAV:   5    -0.264615679531E+02    0.25482E-03   -0.11699E-03  8032   0.496E-01    0.152E-02
DAV:   6    -0.264615667979E+02    0.11552E-05   -0.42514E-05  7700   0.557E-02    0.608E-03
DAV:   7    -0.264615664432E+02    0.35475E-06   -0.23212E-06  8144   0.137E-02    0.319E-03
DAV:   8    -0.264615663043E+02    0.13891E-06   -0.33882E-07  7440   0.536E-03    0.854E-04
DAV:   9    -0.264615662460E+02    0.58228E-07   -0.52289E-08  6400   0.267E-03    0.283E-04
DAV:  10    -0.264615662381E+02    0.79290E-08   -0.56547E-09  3572   0.115E-03
  16 F= -.26461566E+02 E0= -.26461215E+02  d E =-.275311E-04  mag=    -0.0000
       N       E                     dE             d eps       ncg     rms          rms(c)
DAV:   1    -0.264615694571E+02   -0.32111E-05   -0.24155E-04  7208   0.413E-01    0.314E-02
DAV:   2    -0.264615870121E+02   -0.17555E-04   -0.21292E-04  7752   0.164E-01    0.417E-02
DAV:   3    -0.264615675271E+02    0.19485E-04   -0.68335E-05  7836   0.972E-02    0.988E-03
DAV:   4    -0.264615692308E+02   -0.17036E-05   -0.16840E-05  8112   0.581E-02    0.213E-02
DAV:   5    -0.264615665213E+02    0.27095E-05   -0.12204E-05  7980   0.502E-02    0.131E-03
DAV:   6    -0.264615665092E+02    0.12100E-07   -0.43569E-07  6728   0.538E-03    0.601E-04
DAV:   7    -0.264615665154E+02   -0.61973E-08   -0.21287E-08  5028   0.141E-03
  17 F= -.26461567E+02 E0= -.26461217E+02  d E =-.278084E-04  mag=     0.0000
