   4   4   0   0
  0.1137966E+02  0.4251030E-09  0.4251030E-09  0.4251030E-09  0.5000000E-15
  1.000000000000000E-004
  CAR 
 unknown system                          
     24.29935939    -58.69086840  301      8.40243581      1.00000000
    -58.691  0.0000E+00  0.0000E+00  0.0000E+00  0.0000E+00
    -58.414  0.0000E+00  0.0000E+00  0.0000E+00  0.0000E+00
    -58.138  0.0000E+00  0.0000E+00  0.0000E+00  0.0000E+00
    -57.861  0.0000E+00  0.0000E+00  0.0000E+00  0.0000E+00
    -57.584  0.0000E+00  0.0000E+00  0.0000E+00  0.0000E+00
    -57.308  0.0000E+00  0.0000E+00  0.0000E+00  0.0000E+00
    -57.031  0.0000E+00  0.0000E+00  0.0000E+00  0.0000E+00
    -56.754  0.0000E+00  0.0000E+00  0.0000E+00  0.0000E+00
    -56.478  0.0000E+00  0.0000E+00  0.0000E+00  0.0000E+00
    -56.201  0.0000E+00  0.0000E+00  0.0000E+00  0.0000E+00
    -55.925  0.0000E+00  0.0000E+00  0.0000E+00  0.0000E+00
    -55.648  0.0000E+00  0.0000E+00  0.0000E+00  0.0000E+00
    -55.371  0.0000E+00  0.0000E+00  0.0000E+00  0.0000E+00
    -55.095  0.0000E+00  0.0000E+00  0.0000E+00  0.0000E+00
    -54.818  0.4672E+02  0.4672E+02  0.4450E+01  0.4450E+01
    -54.541  0.0000E+00  0.0000E+00  0.9000E+01  0.9000E+01
    -54.265  0.0000E+00  0.0000E+00  0.9000E+01  0.9000E+01
    -53.988  0.0000E+00  0.0000E+00  0.9000E+01  0.9000E+01
    -53.711  0.0000E+00  0.0000E+00  0.9000E+01  0.9000E+01
    -53.435  0.0000E+00  0.0000E+00  0.9000E+01  0.9000E+01
    -53.158  0.0000E+00  0.0000E+00  0.9000E+01  0.9000E+01
    -52.882  0.0000E+00  0.0000E+00  0.9000E+01  0.9000E+01
    -52.605  0.0000E+00  0.0000E+00  0.9000E+01  0.9000E+01
    -52.328  0.0000E+00  0.0000E+00  0.9000E+01  0.9000E+01
    -52.052  0.0000E+00  0.0000E+00  0.9000E+01  0.9000E+01
    -51.775  0.0000E+00  0.0000E+00  0.9000E+01  0.9000E+01
    -51.498  0.0000E+00  0.0000E+00  0.9000E+01  0.9000E+01
    -51.222  0.0000E+00  0.0000E+00  0.9000E+01  0.9000E+01
    -50.945  0.0000E+00  0.0000E+00  0.9000E+01  0.9000E+01
    -50.668  0.0000E+00  0.0000E+00  0.9000E+01  0.9000E+01
    -50.392  0.0000E+00  0.0000E+00  0.9000E+01  0.9000E+01
    -50.115  0.0000E+00  0.0000E+00  0.9000E+01  0.9000E+01
    -49.839  0.0000E+00  0.0000E+00  0.9000E+01  0.9000E+01
    -49.562  0.0000E+00  0.0000E+00  0.9000E+01  0.9000E+01
    -49.285  0.0000E+00  0.0000E+00  0.9000E+01  0.9000E+01
    -49.009  0.0000E+00  0.0000E+00  0.9000E+01  0.9000E+01
    -48.732  0.0000E+00  0.0000E+00  0.9000E+01  0.9000E+01
    -48.455  0.0000E+00  0.0000E+00  0.9000E+01  0.9000E+01
    -48.179  0.0000E+00  0.0000E+00  0.9000E+01  0.9000E+01
    -47.902  0.0000E+00  0.0000E+00  0.9000E+01  0.9000E+01
    -47.626  0.0000E+00  0.0000E+00  0.9000E+01  0.9000E+01
    -47.349  0.0000E+00  0.0000E+00  0.9000E+01  0.9000E+01
    -47.072  0.0000E+00  0.0000E+00  0.9000E+01  0.9000E+01
    -46.796  0.0000E+00  0.0000E+00  0.9000E+01  0.9000E+01
    -46.519  0.0000E+00  0.0000E+00  0.9000E+01  0.9000E+01
    -46.242  0.0000E+00  0.0000E+00  0.9000E+01  0.9000E+01
    -45.966  0.0000E+00  0.0000E+00  0.9000E+01  0.9000E+01
    -45.689  0.0000E+00  0.0000E+00  0.9000E+01  0.9000E+01
    -45.412  0.0000E+00  0.0000E+00  0.9000E+01  0.9000E+01
    -45.136  0.0000E+00  0.0000E+00  0.9000E+01  0.9000E+01
    -44.859  0.0000E+00  0.0000E+00  0.9000E+01  0.9000E+01
    -44.583  0.0000E+00  0.0000E+00  0.9000E+01  0.9000E+01
    -44.306  0.0000E+00  0.0000E+00  0.9000E+01  0.9000E+01
    -44.029  0.0000E+00  0.0000E+00  0.9000E+01  0.9000E+01
    -43.753  0.0000E+00  0.0000E+00  0.9000E+01  0.9000E+01
    -43.476  0.0000E+00  0.0000E+00  0.9000E+01  0.9000E+01
    -43.199  0.0000E+00  0.0000E+00  0.9000E+01  0.9000E+01
    -42.923  0.0000E+00  0.0000E+00  0.9000E+01  0.9000E+01
    -42.646  0.0000E+00  0.0000E+00  0.9000E+01  0.9000E+01
    -42.369  0.0000E+00  0.0000E+00  0.9000E+01  0.9000E+01
    -42.093  0.0000E+00  0.0000E+00  0.9000E+01  0.9000E+01
    -41.816  0.0000E+00  0.0000E+00  0.9000E+01  0.9000E+01
    -41.540  0.0000E+00  0.0000E+00  0.9000E+01  0.9000E+01
    -41.263  0.0000E+00  0.0000E+00  0.9000E+01  0.9000E+01
    -40.986  0.0000E+00  0.0000E+00  0.9000E+01  0.9000E+01
    -40.710  0.0000E+00  0.0000E+00  0.9000E+01  0.9000E+01
    -40.433  0.0000E+00  0.0000E+00  0.9000E+01  0.9000E+01
    -40.156  0.0000E+00  0.0000E+00  0.9000E+01  0.9000E+01
    -39.880  0.0000E+00  0.0000E+00  0.9000E+01  0.9000E+01
    -39.603  0.0000E+00  0.0000E+00  0.9000E+01  0.9000E+01
    -39.326  0.0000E+00  0.0000E+00  0.9000E+01  0.9000E+01
    -39.050  0.0000E+00  0.0000E+00  0.9000E+01  0.9000E+01
    -38.773  0.0000E+00  0.0000E+00  0.9000E+01  0.9000E+01
    -38.497  0.0000E+00  0.0000E+00  0.9000E+01  0.9000E+01
    -38.220  0.0000E+00  0.0000E+00  0.9000E+01  0.9000E+01
    -37.943  0.0000E+00  0.0000E+00  0.9000E+01  0.9000E+01
    -37.667  0.0000E+00  0.0000E+00  0.9000E+01  0.9000E+01
    -37.390  0.0000E+00  0.0000E+00  0.9000E+01  0.9000E+01
    -37.113  0.0000E+00  0.0000E+00  0.9000E+01  0.9000E+01
    -36.837  0.0000E+00  0.0000E+00  0.9000E+01  0.9000E+01
    -36.560  0.0000E+00  0.0000E+00  0.9000E+01  0.9000E+01
    -36.284  0.0000E+00  0.0000E+00  0.9000E+01  0.9000E+01
    -36.007  0.0000E+00  0.0000E+00  0.9000E+01  0.9000E+01
    -35.730  0.0000E+00  0.0000E+00  0.9000E+01  0.9000E+01
    -35.454  0.0000E+00  0.0000E+00  0.9000E+01  0.9000E+01
    -35.177  0.0000E+00  0.0000E+00  0.9000E+01  0.9000E+01
    -34.900  0.0000E+00  0.0000E+00  0.9000E+01  0.9000E+01
    -34.624  0.0000E+00  0.0000E+00  0.9000E+01  0.9000E+01
    -34.347  0.0000E+00  0.0000E+00  0.9000E+01  0.9000E+01
    -34.070  0.0000E+00  0.0000E+00  0.9000E+01  0.9000E+01
    -33.794  0.0000E+00  0.0000E+00  0.9000E+01  0.9000E+01
    -33.517  0.0000E+00  0.0000E+00  0.9000E+01  0.9000E+01
    -33.241  0.0000E+00  0.0000E+00  0.9000E+01  0.9000E+01
    -32.964  0.0000E+00  0.0000E+00  0.9000E+01  0.9000E+01
    -32.687  0.0000E+00  0.0000E+00  0.9000E+01  0.9000E+01
    -32.411  0.0000E+00  0.0000E+00  0.9000E+01  0.9000E+01
    -32.134  0.0000E+00  0.0000E+00  0.9000E+01  0.9000E+01
    -31.857  0.0000E+00  0.0000E+00  0.9000E+01  0.9000E+01
    -31.581  0.0000E+00  0.0000E+00  0.9000E+01  0.9000E+01
    -31.304  0.0000E+00  0.0000E+00  0.9000E+01  0.9000E+01
    -31.027  0.0000E+00  0.0000E+00  0.9000E+01  0.9000E+01
    -30.751  0.0000E+00  0.0000E+00  0.9000E+01  0.9000E+01
    -30.474  0.0000E+00  0.0000E+00  0.9000E+01  0.9000E+01
    -30.198  0.0000E+00  0.0000E+00  0.9000E+01  0.9000E+01
    -29.921  0.0000E+00  0.0000E+00  0.9000E+01  0.9000E+01
    -29.644  0.0000E+00  0.0000E+00  0.9000E+01  0.9000E+01
    -29.368  0.0000E+00  0.0000E+00  0.9000E+01  0.9000E+01
    -29.091  0.0000E+00  0.0000E+00  0.9000E+01  0.9000E+01
    -28.814  0.0000E+00  0.0000E+00  0.9000E+01  0.9000E+01
    -28.538  0.0000E+00  0.0000E+00  0.9000E+01  0.9000E+01
    -28.261  0.0000E+00  0.0000E+00  0.9000E+01  0.9000E+01
    -27.984  0.0000E+00  0.0000E+00  0.9000E+01  0.9000E+01
    -27.708  0.0000E+00  0.0000E+00  0.9000E+01  0.9000E+01
    -27.431  0.0000E+00  0.0000E+00  0.9000E+01  0.9000E+01
    -27.155  0.0000E+00  0.0000E+00  0.9000E+01  0.9000E+01
    -26.878  0.0000E+00  0.0000E+00  0.9000E+01  0.9000E+01
    -26.601  0.0000E+00  0.0000E+00  0.9000E+01  0.9000E+01
    -26.325  0.0000E+00  0.0000E+00  0.9000E+01  0.9000E+01
    -26.048  0.0000E+00  0.0000E+00  0.9000E+01  0.9000E+01
    -25.771  0.0000E+00  0.0000E+00  0.9000E+01  0.9000E+01
    -25.495  0.0000E+00  0.0000E+00  0.9000E+01  0.9000E+01
    -25.218  0.0000E+00  0.0000E+00  0.9000E+01  0.9000E+01
    -24.942  0.0000E+00  0.0000E+00  0.9000E+01  0.9000E+01
    -24.665  0.0000E+00  0.0000E+00  0.9000E+01  0.9000E+01
    -24.388  0.0000E+00  0.0000E+00  0.9000E+01  0.9000E+01
    -24.112  0.0000E+00  0.0000E+00  0.9000E+01  0.9000E+01
    -23.835  0.0000E+00  0.0000E+00  0.9000E+01  0.9000E+01
    -23.558  0.0000E+00  0.0000E+00  0.9000E+01  0.9000E+01
    -23.282  0.0000E+00  0.0000E+00  0.9000E+01  0.9000E+01
    -23.005  0.0000E+00  0.0000E+00  0.9000E+01  0.9000E+01
    -22.728  0.0000E+00  0.0000E+00  0.9000E+01  0.9000E+01
    -22.452  0.0000E+00  0.0000E+00  0.9000E+01  0.9000E+01
    -22.175  0.0000E+00  0.0000E+00  0.9000E+01  0.9000E+01
    -21.899  0.0000E+00  0.0000E+00  0.9000E+01  0.9000E+01
    -21.622  0.0000E+00  0.0000E+00  0.9000E+01  0.9000E+01
    -21.345  0.0000E+00  0.0000E+00  0.9000E+01  0.9000E+01
    -21.069  0.0000E+00  0.0000E+00  0.9000E+01  0.9000E+01
    -20.792  0.0000E+00  0.0000E+00  0.9000E+01  0.9000E+01
    -20.515  0.0000E+00  0.0000E+00  0.9000E+01  0.9000E+01
    -20.239  0.0000E+00  0.0000E+00  0.9000E+01  0.9000E+01
    -19.962  0.0000E+00  0.0000E+00  0.9000E+01  0.9000E+01
    -19.685  0.0000E+00  0.0000E+00  0.9000E+01  0.9000E+01
    -19.409  0.0000E+00  0.0000E+00  0.9000E+01  0.9000E+01
    -19.132  0.0000E+00  0.0000E+00  0.9000E+01  0.9000E+01
    -18.856  0.0000E+00  0.0000E+00  0.9000E+01  0.9000E+01
    -18.579  0.0000E+00  0.0000E+00  0.9000E+01  0.9000E+01
    -18.302  0.0000E+00  0.0000E+00  0.9000E+01  0.9000E+01
    -18.026  0.0000E+00  0.0000E+00  0.9000E+01  0.9000E+01
    -17.749  0.0000E+00  0.0000E+00  0.9000E+01  0.9000E+01
    -17.472  0.0000E+00  0.0000E+00  0.9000E+01  0.9000E+01
    -17.196  0.0000E+00  0.0000E+00  0.9000E+01  0.9000E+01
    -16.919  0.0000E+00  0.0000E+00  0.9000E+01  0.9000E+01
    -16.642  0.0000E+00  0.0000E+00  0.9000E+01  0.9000E+01
    -16.366  0.0000E+00  0.0000E+00  0.9000E+01  0.9000E+01
    -16.089  0.0000E+00  0.0000E+00  0.9000E+01  0.9000E+01
    -15.813  0.0000E+00  0.0000E+00  0.9000E+01  0.9000E+01
    -15.536  0.0000E+00  0.0000E+00  0.9000E+01  0.9000E+01
    -15.259  0.0000E+00  0.0000E+00  0.9000E+01  0.9000E+01
    -14.983  0.0000E+00  0.0000E+00  0.9000E+01  0.9000E+01
    -14.706  0.0000E+00  0.0000E+00  0.9000E+01  0.9000E+01
    -14.429  0.0000E+00  0.0000E+00  0.9000E+01  0.9000E+01
    -14.153  0.0000E+00  0.0000E+00  0.9000E+01  0.9000E+01
    -13.876  0.0000E+00  0.0000E+00  0.9000E+01  0.9000E+01
    -13.600  0.0000E+00  0.0000E+00  0.9000E+01  0.9000E+01
    -13.323  0.0000E+00  0.0000E+00  0.9000E+01  0.9000E+01
    -13.046  0.0000E+00  0.0000E+00  0.9000E+01  0.9000E+01
    -12.770  0.0000E+00  0.0000E+00  0.9000E+01  0.9000E+01
    -12.493  0.0000E+00  0.0000E+00  0.9000E+01  0.9000E+01
    -12.216  0.0000E+00  0.0000E+00  0.9000E+01  0.9000E+01
    -11.940  0.0000E+00  0.0000E+00  0.9000E+01  0.9000E+01
    -11.663  0.0000E+00  0.0000E+00  0.9000E+01  0.9000E+01
    -11.386  0.0000E+00  0.0000E+00  0.9000E+01  0.9000E+01
    -11.110  0.0000E+00  0.0000E+00  0.9000E+01  0.9000E+01
    -10.833  0.0000E+00  0.0000E+00  0.9000E+01  0.9000E+01
    -10.557  0.0000E+00  0.0000E+00  0.9000E+01  0.9000E+01
    -10.280  0.0000E+00  0.0000E+00  0.9000E+01  0.9000E+01
    -10.003  0.0000E+00  0.0000E+00  0.9000E+01  0.9000E+01
     -9.727  0.0000E+00  0.0000E+00  0.9000E+01  0.9000E+01
     -9.450  0.0000E+00  0.0000E+00  0.9000E+01  0.9000E+01
     -9.173  0.0000E+00  0.0000E+00  0.9000E+01  0.9000E+01
     -8.897  0.0000E+00  0.0000E+00  0.9000E+01  0.9000E+01
     -8.620  0.0000E+00  0.0000E+00  0.9000E+01  0.9000E+01
     -8.343  0.0000E+00  0.0000E+00  0.9000E+01  0.9000E+01
     -8.067  0.0000E+00  0.0000E+00  0.9000E+01  0.9000E+01
     -7.790  0.0000E+00  0.0000E+00  0.9000E+01  0.9000E+01
     -7.514  0.0000E+00  0.0000E+00  0.9000E+01  0.9000E+01
     -7.237  0.0000E+00  0.0000E+00  0.9000E+01  0.9000E+01
     -6.960  0.0000E+00  0.0000E+00  0.9000E+01  0.9000E+01
     -6.684  0.0000E+00  0.0000E+00  0.9000E+01  0.9000E+01
     -6.407  0.0000E+00  0.0000E+00  0.9000E+01  0.9000E+01
     -6.130  0.0000E+00  0.0000E+00  0.9000E+01  0.9000E+01
     -5.854  0.0000E+00  0.0000E+00  0.9000E+01  0.9000E+01
     -5.577  0.0000E+00  0.0000E+00  0.9000E+01  0.9000E+01
     -5.300  0.0000E+00  0.0000E+00  0.9000E+01  0.9000E+01
     -5.024  0.0000E+00  0.0000E+00  0.9000E+01  0.9000E+01
     -4.747  0.0000E+00  0.0000E+00  0.9000E+01  0.9000E+01
     -4.471  0.0000E+00  0.0000E+00  0.9000E+01  0.9000E+01
     -4.194  0.0000E+00  0.0000E+00  0.9000E+01  0.9000E+01
     -3.917  0.0000E+00  0.0000E+00  0.9000E+01  0.9000E+01
     -3.641  0.0000E+00  0.0000E+00  0.9000E+01  0.9000E+01
     -3.364  0.0000E+00  0.0000E+00  0.9000E+01  0.9000E+01
     -3.087  0.0000E+00  0.0000E+00  0.9000E+01  0.9000E+01
     -2.811  0.0000E+00  0.0000E+00  0.9000E+01  0.9000E+01
     -2.534  0.0000E+00  0.0000E+00  0.9000E+01  0.9000E+01
     -2.258  0.0000E+00  0.0000E+00  0.9000E+01  0.9000E+01
     -1.981  0.0000E+00  0.0000E+00  0.9000E+01  0.9000E+01
     -1.704  0.0000E+00  0.0000E+00  0.9000E+01  0.9000E+01
     -1.428  0.2250E-01  0.2250E-01  0.9001E+01  0.9001E+01
     -1.151  0.8498E-01  0.8498E-01  0.9019E+01  0.9019E+01
     -0.874  0.1180E+00  0.1180E+00  0.9047E+01  0.9047E+01
     -0.598  0.1526E+00  0.1526E+00  0.9084E+01  0.9084E+01
     -0.321  0.1715E+00  0.1715E+00  0.9129E+01  0.9129E+01
     -0.044  0.1982E+00  0.1982E+00  0.9180E+01  0.9180E+01
      0.232  0.2232E+00  0.2232E+00  0.9239E+01  0.9239E+01
      0.509  0.2558E+00  0.2558E+00  0.9305E+01  0.9305E+01
      0.785  0.2978E+00  0.2978E+00  0.9381E+01  0.9381E+01
      1.062  0.3770E+00  0.3770E+00  0.9474E+01  0.9474E+01
      1.339  0.4541E+00  0.4541E+00  0.9590E+01  0.9590E+01
      1.615  0.4713E+00  0.4713E+00  0.9719E+01  0.9719E+01
      1.892  0.3325E+00  0.3325E+00  0.9834E+01  0.9834E+01
      2.169  0.2752E+00  0.2752E+00  0.9917E+01  0.9917E+01
      2.445  0.2447E+00  0.2447E+00  0.9989E+01  0.9989E+01
      2.722  0.2914E+00  0.2914E+00  0.1005E+02  0.1005E+02
      2.999  0.6022E+00  0.6022E+00  0.1018E+02  0.1018E+02
      3.275  0.7692E+00  0.7692E+00  0.1036E+02  0.1036E+02
      3.552  0.7444E+00  0.7444E+00  0.1060E+02  0.1060E+02
      3.828  0.6472E+00  0.6472E+00  0.1078E+02  0.1078E+02
      4.105  0.9157E+00  0.9157E+00  0.1100E+02  0.1100E+02
      4.382  0.1126E+01  0.1126E+01  0.1128E+02  0.1128E+02
      4.658  0.1544E+01  0.1544E+01  0.1163E+02  0.1163E+02
      4.935  0.2126E+01  0.2126E+01  0.1216E+02  0.1216E+02
      5.212  0.4012E+01  0.4012E+01  0.1279E+02  0.1279E+02
      5.488  0.4615E+01  0.4615E+01  0.1383E+02  0.1383E+02
      5.765  0.4605E+01  0.4605E+01  0.1485E+02  0.1485E+02
      6.042  0.3399E+01  0.3399E+01  0.1587E+02  0.1587E+02
      6.318  0.4884E+01  0.4884E+01  0.1692E+02  0.1692E+02
      6.595  0.3762E+01  0.3762E+01  0.1802E+02  0.1802E+02
      6.871  0.3758E+01  0.3758E+01  0.1898E+02  0.1898E+02
      7.148  0.4424E+01  0.4424E+01  0.2017E+02  0.2017E+02
      7.425  0.4305E+01  0.4305E+01  0.2127E+02  0.2127E+02
      7.701  0.5759E+01  0.5759E+01  0.2298E+02  0.2298E+02
      7.978  0.1473E+01  0.1473E+01  0.2396E+02  0.2396E+02
      8.255  0.3176E+01  0.3176E+01  0.2516E+02  0.2516E+02
      8.531  0.1124E+01  0.1124E+01  0.2568E+02  0.2568E+02
      8.808  0.8252E+00  0.8252E+00  0.2594E+02  0.2594E+02
      9.084  0.6858E+00  0.6858E+00  0.2615E+02  0.2615E+02
      9.361  0.9168E+00  0.9168E+00  0.2639E+02  0.2639E+02
      9.638  0.8205E+00  0.8205E+00  0.2663E+02  0.2663E+02
      9.914  0.7612E+00  0.7612E+00  0.2686E+02  0.2686E+02
     10.191  0.6588E+00  0.6588E+00  0.2705E+02  0.2705E+02
     10.468  0.5561E+00  0.5561E+00  0.2722E+02  0.2722E+02
     10.744  0.4806E+00  0.4806E+00  0.2737E+02  0.2737E+02
     11.021  0.3852E+00  0.3852E+00  0.2749E+02  0.2749E+02
     11.298  0.3495E+00  0.3495E+00  0.2759E+02  0.2759E+02
     11.574  0.3630E+00  0.3630E+00  0.2769E+02  0.2769E+02
     11.851  0.3124E+00  0.3124E+00  0.2778E+02  0.2778E+02
     12.127  0.2963E+00  0.2963E+00  0.2786E+02  0.2786E+02
     12.404  0.3432E+00  0.3432E+00  0.2795E+02  0.2795E+02
     12.681  0.8272E+00  0.8272E+00  0.2812E+02  0.2812E+02
     12.957  0.5121E+00  0.5121E+00  0.2829E+02  0.2829E+02
     13.234  0.6703E+00  0.6703E+00  0.2845E+02  0.2845E+02
     13.511  0.6727E+00  0.6727E+00  0.2864E+02  0.2864E+02
     13.787  0.6368E+00  0.6368E+00  0.2882E+02  0.2882E+02
     14.064  0.6199E+00  0.6199E+00  0.2900E+02  0.2900E+02
     14.341  0.7151E+00  0.7151E+00  0.2918E+02  0.2918E+02
     14.617  0.7787E+00  0.7787E+00  0.2938E+02  0.2938E+02
     14.894  0.8106E+00  0.8106E+00  0.2961E+02  0.2961E+02
     15.170  0.7905E+00  0.7905E+00  0.2983E+02  0.2983E+02
     15.447  0.6939E+00  0.6939E+00  0.3004E+02  0.3004E+02
     15.724  0.6348E+00  0.6348E+00  0.3023E+02  0.3023E+02
     16.000  0.6227E+00  0.6227E+00  0.3040E+02  0.3040E+02
     16.277  0.5739E+00  0.5739E+00  0.3056E+02  0.3056E+02
     16.554  0.5216E+00  0.5216E+00  0.3072E+02  0.3072E+02
     16.830  0.6057E+00  0.6057E+00  0.3087E+02  0.3087E+02
     17.107  0.5927E+00  0.5926E+00  0.3103E+02  0.3103E+02
     17.384  0.6745E+00  0.6745E+00  0.3121E+02  0.3121E+02
     17.660  0.7139E+00  0.7139E+00  0.3139E+02  0.3139E+02
     17.937  0.7152E+00  0.7152E+00  0.3159E+02  0.3159E+02
     18.213  0.5089E+00  0.5089E+00  0.3176E+02  0.3176E+02
     18.490  0.2752E+00  0.2752E+00  0.3188E+02  0.3188E+02
     18.767  0.1218E+00  0.1218E+00  0.3193E+02  0.3193E+02
     19.043  0.6462E-01  0.6462E-01  0.3195E+02  0.3195E+02
     19.320  0.4430E-01  0.4430E-01  0.3197E+02  0.3197E+02
     19.597  0.3562E-01  0.3562E-01  0.3198E+02  0.3198E+02
     19.873  0.2822E-01  0.2822E-01  0.3199E+02  0.3199E+02
     20.150  0.2003E-01  0.2003E-01  0.3199E+02  0.3199E+02
     20.426  0.1105E-01  0.1105E-01  0.3200E+02  0.3200E+02
     20.703  0.0000E+00  0.0000E+00  0.3200E+02  0.3200E+02
     20.980  0.0000E+00  0.0000E+00  0.3200E+02  0.3200E+02
     21.256  0.0000E+00  0.0000E+00  0.3200E+02  0.3200E+02
     21.533  0.0000E+00  0.0000E+00  0.3200E+02  0.3200E+02
     21.810  0.0000E+00  0.0000E+00  0.3200E+02  0.3200E+02
     22.086  0.0000E+00  0.0000E+00  0.3200E+02  0.3200E+02
     22.363  0.0000E+00  0.0000E+00  0.3200E+02  0.3200E+02
     22.640  0.0000E+00  0.0000E+00  0.3200E+02  0.3200E+02
     22.916  0.0000E+00  0.0000E+00  0.3200E+02  0.3200E+02
     23.193  0.0000E+00  0.0000E+00  0.3200E+02  0.3200E+02
     23.469  0.0000E+00  0.0000E+00  0.3200E+02  0.3200E+02
     23.746  0.0000E+00  0.0000E+00  0.3200E+02  0.3200E+02
     24.023  0.0000E+00  0.0000E+00  0.3200E+02  0.3200E+02
     24.299  0.0000E+00  0.0000E+00  0.3200E+02  0.3200E+02
