       N       E                     dE             d eps       ncg     rms          rms(c)
DAV:   1     0.595888234947E+03    0.59589E+03   -0.31612E+04  6216   0.198E+03
DAV:   2     0.521611517095E+01   -0.59067E+03   -0.57196E+03  5264   0.611E+02
DAV:   3    -0.253951096742E+02   -0.30611E+02   -0.28894E+02  6000   0.161E+02
DAV:   4    -0.260513450901E+02   -0.65624E+00   -0.65476E+00  5656   0.229E+01
DAV:   5    -0.260690163187E+02   -0.17671E-01   -0.17671E-01  6368   0.385E+00    0.187E+01
DAV:   6    -0.278761215279E+02   -0.18071E+01   -0.57426E+01  5768   0.101E+02    0.221E+01
DAV:   7    -0.226341377414E+02    0.52420E+01   -0.19689E+01  5696   0.580E+01    0.182E+00
DAV:   8    -0.227407376014E+02   -0.10660E+00   -0.60938E-01  6664   0.175E+01    0.463E+00
DAV:   9    -0.226230964647E+02    0.11764E+00   -0.31420E-01  6176   0.116E+01    0.828E-01
DAV:  10    -0.226146876978E+02    0.84088E-02   -0.29576E-02  5864   0.192E+00    0.278E-01
DAV:  11    -0.226150374679E+02   -0.34977E-03   -0.13970E-03  6024   0.497E-01    0.106E-01
DAV:  12    -0.226150267016E+02    0.10766E-04   -0.24195E-04  6408   0.214E-01    0.272E-02
DAV:  13    -0.226150266898E+02    0.11836E-07   -0.28990E-05  5944   0.620E-02    0.102E-02
DAV:  14    -0.226150256885E+02    0.10013E-05   -0.34284E-06  5656   0.239E-02    0.550E-03
DAV:  15    -0.226150253940E+02    0.29451E-06   -0.54402E-07  5944   0.106E-02    0.206E-03
DAV:  16    -0.226150251855E+02    0.20849E-06   -0.10137E-07  5576   0.377E-03    0.519E-04
DAV:  17    -0.226150251976E+02   -0.12125E-07   -0.26498E-08  3752   0.193E-03    0.375E-04
DAV:  18    -0.226150252036E+02   -0.59881E-08   -0.20942E-09  2792   0.696E-04
   1 F= -.22615025E+02 E0= -.22615221E+02  d E =-.226150E+02  mag=     0.3171
       N       E                     dE             d eps       ncg     rms          rms(c)
DAV:   1    -0.399262137730E+02   -0.17311E+02   -0.16568E+02  5136   0.188E+02    0.385E+01
DAV:   2    -0.404004190413E+02   -0.47421E+00   -0.25318E+02  5744   0.178E+02    0.351E+01
DAV:   3    -0.229307284473E+02    0.17470E+02   -0.69905E+01  5680   0.104E+02    0.624E+00
DAV:   4    -0.232435421042E+02   -0.31281E+00   -0.38264E+00  6600   0.329E+01    0.840E+00
DAV:   5    -0.226577898035E+02    0.58575E+00   -0.81130E-01  6296   0.216E+01    0.138E+00
DAV:   6    -0.226404994422E+02    0.17290E-01   -0.14177E-01  6408   0.503E+00    0.942E-01
DAV:   7    -0.226388090246E+02    0.16904E-02   -0.34696E-02  5728   0.391E+00    0.684E-01
DAV:   8    -0.226366796653E+02    0.21294E-02   -0.36532E-03  5888   0.147E+00    0.211E-01
DAV:   9    -0.226366678463E+02    0.11819E-04   -0.52978E-04  6832   0.341E-01    0.170E-01
DAV:  10    -0.226362514476E+02    0.41640E-03   -0.61504E-04  6488   0.395E-01    0.136E-01
DAV:  11    -0.226361893842E+02    0.62063E-04   -0.33907E-04  5872   0.223E-01    0.773E-02
DAV:  12    -0.226362310544E+02   -0.41670E-04   -0.41583E-05  6528   0.957E-02    0.584E-02
DAV:  13    -0.226362223493E+02    0.87051E-05   -0.23948E-05  6336   0.888E-02    0.249E-02
DAV:  14    -0.226362214636E+02    0.88565E-06   -0.11887E-05  6408   0.486E-02    0.647E-03
DAV:  15    -0.226362218695E+02   -0.40591E-06   -0.22623E-06  5936   0.179E-02    0.205E-03
DAV:  16    -0.226362220512E+02   -0.18161E-06   -0.28163E-07  5624   0.763E-03    0.177E-03
DAV:  17    -0.226362219894E+02    0.61749E-07   -0.30625E-08  3936   0.282E-03    0.116E-03
DAV:  18    -0.226362219728E+02    0.16622E-07   -0.60933E-09  2688   0.204E-03    0.401E-04
DAV:  19    -0.226362219673E+02    0.54915E-08   -0.57196E-09  2648   0.883E-04
   2 F= -.22636222E+02 E0= -.22636009E+02  d E =-.211968E-01  mag=    -0.0001
       N       E                     dE             d eps       ncg     rms          rms(c)
DAV:   1    -0.263021755519E+02   -0.36660E+01   -0.35364E+01  5152   0.781E+01    0.189E+01
DAV:   2    -0.278523925790E+02   -0.15502E+01   -0.52111E+01  5584   0.972E+01    0.193E+01
DAV:   3    -0.227305265139E+02    0.51219E+01   -0.17461E+01  5584   0.558E+01    0.298E+00
DAV:   4    -0.227487231488E+02   -0.18197E-01   -0.54661E-01  5936   0.137E+01    0.311E+00
DAV:   5    -0.226740958827E+02    0.74627E-01   -0.14265E-01  6432   0.646E+00    0.753E-01
DAV:   6    -0.226691242621E+02    0.49716E-02   -0.15540E-02  5808   0.178E+00    0.160E-01
DAV:   7    -0.226688264480E+02    0.29781E-03   -0.14540E-03  5488   0.387E-01    0.948E-02
DAV:   8    -0.226687739941E+02    0.52454E-04   -0.19133E-04  6720   0.257E-01    0.216E-02
DAV:   9    -0.226687716098E+02    0.23843E-05   -0.40193E-05  5608   0.955E-02    0.605E-03
DAV:  10    -0.226687708071E+02    0.80272E-06   -0.36442E-06  5640   0.289E-02    0.366E-03
DAV:  11    -0.226687706477E+02    0.15940E-06   -0.34240E-07  6088   0.119E-02    0.127E-03
DAV:  12    -0.226687705943E+02    0.53360E-07   -0.44440E-08  4472   0.330E-03    0.120E-03
DAV:  13    -0.226687705390E+02    0.55357E-07   -0.24258E-08  3632   0.189E-03    0.112E-03
DAV:  14    -0.226687705204E+02    0.18557E-07   -0.29983E-08  3696   0.195E-03    0.567E-04
DAV:  15    -0.226687705636E+02   -0.43192E-07   -0.13867E-08  3192   0.151E-03    0.397E-04
DAV:  16    -0.226687705714E+02   -0.77707E-08   -0.32074E-09  2672   0.767E-04
   3 F= -.22668771E+02 E0= -.22668541E+02  d E =-.537454E-01  mag=     0.0001
       N       E                     dE             d eps       ncg     rms          rms(c)
DAV:   1    -0.227579978535E+02   -0.89227E-01   -0.21821E+00  5488   0.126E+01    0.245E+00
DAV:   2    -0.227428279717E+02    0.15170E-01   -0.19305E-01  6280   0.999E+00    0.324E+00
DAV:   3    -0.227078470709E+02    0.34981E-01   -0.25393E-01  6112   0.107E+01    0.197E+00
DAV:   4    -0.226790162636E+02    0.28831E-01   -0.48036E-02  7024   0.407E+00    0.275E-01
DAV:   5    -0.226781329273E+02    0.88334E-03   -0.50980E-03  5232   0.835E-01    0.134E-01
DAV:   6    -0.226778530409E+02    0.27989E-03   -0.63301E-04  6928   0.630E-01    0.829E-02
DAV:   7    -0.226778237803E+02    0.29261E-04   -0.19568E-04  6016   0.292E-01    0.223E-02
DAV:   8    -0.226778214573E+02    0.23229E-05   -0.16339E-05  5576   0.724E-02    0.745E-03
DAV:   9    -0.226778210322E+02    0.42512E-06   -0.16215E-06  6168   0.200E-02    0.212E-03
DAV:  10    -0.226778209709E+02    0.61293E-07   -0.17962E-07  6720   0.770E-03    0.136E-03
DAV:  11    -0.226778209731E+02   -0.22228E-08   -0.24357E-08  3816   0.249E-03
   4 F= -.22677821E+02 E0= -.22677579E+02  d E =-.905040E-02  mag=     0.0003
       N       E                     dE             d eps       ncg     rms          rms(c)
DAV:   1    -0.233997000690E+02   -0.72188E+00   -0.19806E+01  5536   0.381E+01    0.707E+00
DAV:   2    -0.230513324586E+02    0.34837E+00   -0.12164E+00  6160   0.219E+01    0.688E+00
DAV:   3    -0.229992521707E+02    0.52080E-01   -0.19398E+00  6160   0.267E+01    0.598E+00
DAV:   4    -0.227048502160E+02    0.29440E+00   -0.44812E-01  7056   0.124E+01    0.102E+00
DAV:   5    -0.226995215746E+02    0.53286E-02   -0.48454E-02  5328   0.245E+00    0.572E-01
DAV:   6    -0.226959133738E+02    0.36082E-02   -0.56340E-03  7264   0.190E+00    0.175E-01
DAV:   7    -0.226956677149E+02    0.24566E-03   -0.19664E-03  5600   0.694E-01    0.757E-02
DAV:   8    -0.226956426274E+02    0.25088E-04   -0.16944E-04  5952   0.276E-01    0.305E-02
DAV:   9    -0.226956452013E+02   -0.25739E-05   -0.25622E-05  6608   0.119E-01    0.199E-02
DAV:  10    -0.226956430356E+02    0.21657E-05   -0.49343E-06  6472   0.528E-02    0.153E-03
DAV:  11    -0.226956430367E+02   -0.10623E-08   -0.54244E-07  5408   0.892E-03    0.130E-03
DAV:  12    -0.226956430362E+02    0.48931E-09   -0.21136E-08  3880   0.197E-03
   5 F= -.22695643E+02 E0= -.22695617E+02  d E =-.268725E-01  mag=     0.0002
       N       E                     dE             d eps       ncg     rms          rms(c)
DAV:   1    -0.255157995377E+02   -0.28202E+01   -0.81699E+01  5520   0.775E+01    0.142E+01
DAV:   2    -0.238302721445E+02    0.16855E+01   -0.45193E+00  6448   0.350E+01    0.117E+01
DAV:   3    -0.240498766722E+02   -0.21960E+00   -0.88699E+00  6176   0.498E+01    0.122E+01
DAV:   4    -0.227551901381E+02    0.12947E+01   -0.19845E+00  6848   0.264E+01    0.289E+00
DAV:   5    -0.227053461911E+02    0.49844E-01   -0.29815E-01  5616   0.668E+00    0.102E+00
DAV:   6    -0.226941960097E+02    0.11150E-01   -0.18560E-02  7008   0.211E+00    0.406E-01
DAV:   7    -0.226917539575E+02    0.24421E-02   -0.61884E-03  5504   0.120E+00    0.351E-01
DAV:   8    -0.226909963129E+02    0.75764E-03   -0.32240E-03  6800   0.166E+00    0.154E-01
DAV:   9    -0.226908857216E+02    0.11059E-03   -0.72583E-04  6632   0.648E-01    0.567E-02
DAV:  10    -0.226908688822E+02    0.16839E-04   -0.60210E-05  6008   0.156E-01    0.146E-02
DAV:  11    -0.226908680046E+02    0.87752E-06   -0.67585E-06  6312   0.286E-02    0.743E-03
DAV:  12    -0.226908676736E+02    0.33109E-06   -0.41879E-07  7032   0.953E-03    0.453E-03
DAV:  13    -0.226908675031E+02    0.17046E-06   -0.30951E-07  7280   0.130E-02    0.463E-04
DAV:  14    -0.226908675227E+02   -0.19569E-07   -0.62673E-08  5168   0.288E-03    0.220E-04
DAV:  15    -0.226908675176E+02    0.50150E-08   -0.13423E-09  2664   0.410E-04
   6 F= -.22690868E+02 E0= -.22690554E+02  d E =-.220969E-01  mag=     0.0004
       N       E                     dE             d eps       ncg     rms          rms(c)
DAV:   1    -0.237365550096E+02   -0.10457E+01   -0.29678E+01  5504   0.472E+01    0.825E+00
DAV:   2    -0.230170696387E+02    0.71949E+00   -0.12917E+00  5896   0.192E+01    0.485E+00
DAV:   3    -0.231622689206E+02   -0.14520E+00   -0.14176E+00  6496   0.282E+01    0.824E+00
DAV:   4    -0.228077250691E+02    0.35454E+00   -0.16063E+00  6112   0.237E+01    0.339E+00
DAV:   5    -0.227001549303E+02    0.10757E+00   -0.26157E-01  5888   0.902E+00    0.429E-01
DAV:   6    -0.226997909848E+02    0.36395E-03   -0.35558E-02  5584   0.221E+00    0.186E-01
DAV:   7    -0.226996995615E+02    0.91423E-04   -0.29151E-03  5736   0.708E-01    0.778E-02
DAV:   8    -0.226997373899E+02   -0.37828E-04   -0.34876E-04  6352   0.286E-01    0.542E-02
DAV:   9    -0.226997241839E+02    0.13206E-04   -0.60101E-05  5880   0.153E-01    0.772E-03
DAV:  10    -0.226997246930E+02   -0.50911E-06   -0.75760E-06  5832   0.311E-02    0.295E-03
DAV:  11    -0.226997246507E+02    0.42308E-07   -0.26655E-07  6080   0.807E-03    0.140E-03
DAV:  12    -0.226997246786E+02   -0.27956E-07   -0.57215E-08  4808   0.286E-03    0.830E-04
DAV:  13    -0.226997246864E+02   -0.77307E-08   -0.85780E-09  2816   0.216E-03
   7 F= -.22699725E+02 E0= -.22699563E+02  d E =-.309541E-01  mag=     0.0010
       N       E                     dE             d eps       ncg     rms          rms(c)
DAV:   1    -0.228202471459E+02   -0.12052E+00   -0.11270E+00  5136   0.148E+01    0.344E+00
DAV:   2    -0.228657400217E+02   -0.45493E-01   -0.16825E+00  5632   0.175E+01    0.354E+00
DAV:   3    -0.227087641157E+02    0.15698E+00   -0.54593E-01  5712   0.113E+01    0.142E+00
DAV:   4    -0.227014278929E+02    0.73362E-02   -0.51150E-02  5312   0.503E+00    0.426E-01
DAV:   5    -0.226993328850E+02    0.20950E-02   -0.36966E-03  5808   0.830E-01    0.112E-01
DAV:   6    -0.226992373056E+02    0.95579E-04   -0.32982E-04  5808   0.248E-01    0.170E-02
DAV:   7    -0.226992332046E+02    0.41009E-05   -0.22517E-05  5336   0.596E-02    0.124E-02
DAV:   8    -0.226992322111E+02    0.99351E-06   -0.24957E-06  6504   0.363E-02    0.317E-03
DAV:   9    -0.226992318816E+02    0.32956E-06   -0.64469E-07  5576   0.932E-03    0.129E-03
DAV:  10    -0.226992318296E+02    0.51916E-07   -0.33767E-08  4472   0.278E-03    0.119E-03
DAV:  11    -0.226992318203E+02    0.93496E-08   -0.59218E-09  2872   0.110E-03
   8 F= -.22699232E+02 E0= -.22699066E+02  d E =0.492866E-03  mag=     0.0026
       N       E                     dE             d eps       ncg     rms          rms(c)
DAV:   1    -0.227606942381E+02   -0.61462E-01   -0.56255E-01  5136   0.105E+01    0.245E+00
DAV:   2    -0.227853413202E+02   -0.24647E-01   -0.87312E-01  5664   0.123E+01    0.255E+00
DAV:   3    -0.227070003575E+02    0.78341E-01   -0.27821E-01  5728   0.848E+00    0.119E+00
DAV:   4    -0.227007476975E+02    0.62527E-02   -0.31588E-02  5360   0.358E+00    0.259E-01
DAV:   5    -0.226998801579E+02    0.86754E-03   -0.20716E-03  5456   0.388E-01    0.774E-02
DAV:   6    -0.226998284094E+02    0.51748E-04   -0.13386E-04  6112   0.165E-01    0.111E-02
DAV:   7    -0.226998299230E+02   -0.15136E-05   -0.96694E-06  5408   0.312E-02    0.626E-03
DAV:   8    -0.226998301780E+02   -0.25497E-06   -0.13621E-06  6216   0.176E-02    0.228E-03
DAV:   9    -0.226998303631E+02   -0.18518E-06   -0.14340E-07  5328   0.502E-03    0.258E-03
DAV:  10    -0.226998302255E+02    0.13767E-06   -0.91608E-08  4920   0.452E-03    0.260E-03
DAV:  11    -0.226998299929E+02    0.23262E-06   -0.68591E-07  5976   0.114E-02    0.159E-03
DAV:  12    -0.226998300367E+02   -0.43829E-07   -0.51201E-07  6224   0.900E-03    0.889E-04
DAV:  13    -0.226998301149E+02   -0.78227E-07   -0.49278E-08  4440   0.267E-03    0.266E-04
DAV:  14    -0.226998301126E+02    0.23065E-08   -0.90447E-09  2688   0.157E-03
   9 F= -.22699830E+02 E0= -.22699667E+02  d E =-.105426E-03  mag=     0.0002
