       N       E                     dE             d eps       ncg     rms          rms(c)
DAV:   1    -0.284054389807E+02   -0.28405E+02   -0.53551E-01  7040   0.864E+00    0.242E-01
DAV:   2    -0.284085976009E+02   -0.31586E-02   -0.11509E-02  9104   0.119E+00    0.451E-01
DAV:   3    -0.284055674633E+02    0.30301E-02   -0.67033E-03  8432   0.101E+00    0.776E-02
DAV:   4    -0.284058204876E+02   -0.25302E-03   -0.27520E-04  9152   0.167E-01    0.138E-02
DAV:   5    -0.284058447377E+02   -0.24250E-04   -0.17528E-05  8512   0.429E-02    0.627E-03
DAV:   6    -0.284058284527E+02    0.16285E-04   -0.11181E-06  8944   0.130E-02    0.966E-04
DAV:   7    -0.284058313762E+02   -0.29235E-05   -0.71076E-08  8144   0.292E-03    0.296E-04
DAV:   8    -0.284058310385E+02    0.33771E-06   -0.44987E-09  4896   0.627E-04    0.646E-05
DAV:   9    -0.284058310141E+02    0.24459E-07   -0.81778E-10  4432   0.301E-04    0.381E-05
DAV:  10    -0.284058309187E+02    0.95402E-07   -0.30946E-10  4256   0.219E-04    0.237E-05
DAV:  11    -0.284058309562E+02   -0.37577E-07   -0.93475E-11  3824   0.116E-04    0.383E-06
DAV:  12    -0.284058309557E+02    0.52296E-09   -0.35471E-11  3728   0.581E-05
   1 F= -.28405831E+02 E0= -.28405831E+02  d E =0.000000E+00  mag=    -0.0000
