 running on   24 total cores
 distrk:  each k-point on   24 cores,    1 groups
 distr:  one band on    6 cores,    4 groups
 using from now: INCAR     
 vasp.5.4.4.18Apr17-6-g9f103f2a35 (build Jan 03 2018 06:08:52) complex          
  
 POSCAR found :  2 types and       6 ions
 scaLAPACK will be used
 WARNING: for PREC=h ENMAX is automatically increase by 25 %
        this was not the case for versions prior to vasp.4.4
 WARNING: for PREC=h ENMAX is automatically increase by 25 %
        this was not the case for versions prior to vasp.4.4
 LDA part: xc-table for Pade appr. of Perdew
 POSCAR, INCAR and KPOINTS ok, starting setup
 FFT: planning ...
 WAVECAR not read
 entering main loop
       N       E                     dE             d eps       ncg     rms          rms(c)
DAV:   1     0.367541933118E+03    0.36754E+03   -0.24435E+04  8512   0.137E+03
DAV:   2    -0.140983623311E+02   -0.38164E+03   -0.36331E+03  7216   0.413E+02
DAV:   3    -0.303650722738E+02   -0.16267E+02   -0.15490E+02  8720   0.975E+01
DAV:   4    -0.307557546954E+02   -0.39068E+00   -0.39013E+00  7896   0.151E+01
DAV:   5    -0.307675361148E+02   -0.11781E-01   -0.11780E-01  8848   0.284E+00    0.279E+01
DAV:   6    -0.534364932403E+02   -0.22669E+02   -0.20711E+02  8096   0.186E+02    0.383E+01
DAV:   7    -0.274214788396E+02    0.26015E+02   -0.60042E+01  8384   0.112E+02    0.114E+01
DAV:   8    -0.261590472878E+02    0.12624E+01   -0.10673E+01 10088   0.352E+01    0.384E+00
DAV:   9    -0.261039399008E+02    0.55107E-01   -0.12156E+00  8992   0.122E+01    0.183E+00
DAV:  10    -0.260930535581E+02    0.10886E-01   -0.37457E-02  9080   0.205E+00    0.105E+00
DAV:  11    -0.260812067779E+02    0.11847E-01   -0.67281E-02 10128   0.272E+00    0.342E-01
DAV:  12    -0.260807767152E+02    0.43006E-03   -0.41456E-03  8032   0.532E-01    0.200E-01
DAV:  13    -0.260804189685E+02    0.35775E-03   -0.11011E-03 10712   0.328E-01    0.368E-02
DAV:  14    -0.260804103782E+02    0.85903E-05   -0.69578E-05  8576   0.550E-02    0.146E-02
DAV:  15    -0.260804080233E+02    0.23549E-05   -0.56568E-06 10120   0.209E-02    0.541E-03
DAV:  16    -0.260804075493E+02    0.47399E-06   -0.24829E-06 10432   0.146E-02    0.340E-03
DAV:  17    -0.260804072684E+02    0.28091E-06   -0.20301E-07  8496   0.418E-03    0.182E-03
DAV:  18    -0.260804071254E+02    0.14294E-06   -0.13415E-07  8696   0.367E-03    0.176E-04
DAV:  19    -0.260804071150E+02    0.10427E-07   -0.65591E-09  4336   0.578E-04    0.182E-04
DAV:  20    -0.260804071179E+02   -0.28531E-08   -0.10580E-09  4256   0.369E-04
   1 F= -.26080407E+02 E0= -.26080671E+02  d E =-.260804E+02  mag=    -0.0000
 curvature:   0.00 expect dE= 0.000E+00 dE for cont linesearch  0.000E+00
 trial: gam= 0.00000 g(F)=  0.263E+00 g(S)=  0.785E+01 ort = 0.000E+00 (trialstep = 0.100E+01)
 search vector abs. value=  0.811E+01
 bond charge predicted
       N       E                     dE             d eps       ncg     rms          rms(c)
DAV:   1    -0.195916611621E+03   -0.16984E+03   -0.28692E+03  7056   0.772E+02    0.928E+01
DAV:   2    -0.513263121919E+02    0.14459E+03   -0.82476E+02  8104   0.238E+02    0.406E+01
DAV:   3    -0.629983391958E+02   -0.11672E+02   -0.29973E+02  7752   0.175E+02    0.452E+01
DAV:   4    -0.287595234867E+02    0.34239E+02   -0.97838E+01  8840   0.103E+02    0.646E+00
DAV:   5    -0.281268419207E+02    0.63268E+00   -0.54529E+00  8280   0.208E+01    0.107E+01
DAV:   6    -0.279449701984E+02    0.18187E+00   -0.10248E+01  9968   0.291E+01    0.113E+01
DAV:   7    -0.270001553989E+02    0.94481E+00   -0.28895E+00  8896   0.144E+01    0.723E-01
DAV:   8    -0.270021678203E+02   -0.20124E-02   -0.64104E-02  7696   0.165E+00    0.855E-01
DAV:   9    -0.269965113355E+02    0.56565E-02   -0.23048E-02  8560   0.168E+00    0.577E-02
DAV:  10    -0.269966752772E+02   -0.16394E-03   -0.91003E-04  8224   0.221E-01    0.847E-02
DAV:  11    -0.269966356180E+02    0.39659E-04   -0.10678E-04  9312   0.941E-02    0.354E-02
DAV:  12    -0.269966283182E+02    0.72998E-05   -0.39677E-05 10408   0.522E-02    0.350E-03
DAV:  13    -0.269966288538E+02   -0.53556E-06   -0.16781E-06  8624   0.978E-03    0.447E-03
DAV:  14    -0.269966286704E+02    0.18339E-06   -0.59166E-07  8696   0.702E-03    0.271E-04
DAV:  15    -0.269966286569E+02    0.13485E-07   -0.21525E-08  7072   0.100E-03    0.201E-04
DAV:  16    -0.269966286578E+02   -0.88039E-09   -0.89589E-10  4280   0.249E-04
   2 F= -.26996629E+02 E0= -.26996780E+02  d E =-.916222E+00  mag=    -0.0000
 trial-energy change:   -0.916222  1 .order   -1.360050   -8.113548    5.393448
 step:   0.5519(harm=  0.6007)  dis= 0.02765  next Energy=   -28.244860 (dE=-0.216E+01)
 bond charge predicted
       N       E                     dE             d eps       ncg     rms          rms(c)
DAV:   1    -0.112488436249E+03   -0.85492E+02   -0.67571E+02  8192   0.301E+02    0.992E+01
DAV:   2    -0.239081158756E+03   -0.12659E+03   -0.18127E+03  9152   0.482E+02    0.756E+01
DAV:   3    -0.645882089059E+02    0.17449E+03   -0.57503E+02  8896   0.205E+02    0.357E+01
DAV:   4    -0.401415139867E+02    0.24447E+02   -0.49802E+01  8128   0.653E+01    0.221E+01
DAV:   5    -0.279928433322E+02    0.12149E+02   -0.26289E+01  9664   0.597E+01    0.267E+00
DAV:   6    -0.302756881652E+02   -0.22828E+01   -0.10831E+01 10224   0.223E+01    0.166E+01
DAV:   7    -0.282286583968E+02    0.20470E+01   -0.38497E+00  9552   0.174E+01    0.410E+00
DAV:   8    -0.280787004967E+02    0.14996E+00   -0.64208E-01 10256   0.565E+00    0.495E-01
DAV:   9    -0.280823301338E+02   -0.36296E-02   -0.27938E-02  7728   0.112E+00    0.603E-01
DAV:  10    -0.280897865925E+02   -0.74565E-02   -0.62878E-03 10992   0.686E-01    0.108E+00
DAV:  11    -0.280790875377E+02    0.10699E-01   -0.27248E-02  9200   0.160E+00    0.768E-02
DAV:  12    -0.280790949484E+02   -0.74107E-05   -0.97062E-04  7680   0.174E-01    0.373E-02
DAV:  13    -0.280794893692E+02   -0.39442E-03   -0.11863E-03  8672   0.355E-01    0.215E-01
DAV:  14    -0.280790647166E+02    0.42465E-03   -0.11605E-03  8992   0.337E-01    0.139E-02
DAV:  15    -0.280790709048E+02   -0.61882E-05   -0.73461E-05  9648   0.556E-02    0.336E-02
DAV:  16    -0.280790651274E+02    0.57774E-05   -0.54393E-05  8720   0.753E-02    0.122E-02
DAV:  17    -0.280790639543E+02    0.11731E-05   -0.19378E-06  8544   0.122E-02    0.641E-03
DAV:  18    -0.280790637333E+02    0.22097E-06   -0.19018E-07 10800   0.352E-03    0.445E-03
DAV:  19    -0.280790634325E+02    0.30081E-06   -0.46201E-07  9344   0.618E-03    0.312E-04
DAV:  20    -0.280790634258E+02    0.67257E-08   -0.31312E-08  6264   0.115E-03
   3 F= -.28079063E+02 E0= -.28078324E+02  d E =-.199866E+01  mag=    -0.0000
 curvature:  -0.30 expect dE=-0.569E-01 dE for cont linesearch -0.214E-03
 ZBRENT: interpolating
 opt :   0.5468  next Energy=   -28.079261 (dE=-0.200E+01)
 bond charge predicted
       N       E                     dE             d eps       ncg     rms          rms(c)
DAV:   1    -0.280908954954E+02   -0.11832E-01   -0.86510E-02  7504   0.379E+00    0.127E+00
DAV:   2    -0.281758578221E+02   -0.84962E-01   -0.57157E-01  8528   0.802E+00    0.324E+00
DAV:   3    -0.280791478045E+02    0.96710E-01   -0.32388E-01  8400   0.626E+00    0.141E-01
DAV:   4    -0.280793831194E+02   -0.23531E-03   -0.61579E-03  7296   0.422E-01    0.122E-01
DAV:   5    -0.280792816013E+02    0.10152E-03   -0.28488E-04  9536   0.173E-01    0.152E-02
DAV:   6    -0.280792797348E+02    0.18665E-05   -0.86512E-06  7632   0.188E-02    0.338E-03
DAV:   7    -0.280792794493E+02    0.28542E-06   -0.54589E-07  8512   0.639E-03    0.829E-04
DAV:   8    -0.280792793470E+02    0.10237E-06   -0.36264E-08  7904   0.130E-03    0.613E-04
DAV:   9    -0.280792792683E+02    0.78704E-07   -0.34906E-09  4832   0.532E-04    0.117E-04
DAV:  10    -0.280792792519E+02    0.16398E-07   -0.15476E-09  4192   0.315E-04    0.201E-05
DAV:  11    -0.280792792530E+02   -0.11551E-08   -0.25885E-10  4064   0.129E-04
   4 F= -.28079279E+02 E0= -.28078531E+02  d E =-.199887E+01  mag=    -0.0000
 curvature:  -0.27 expect dE=-0.515E-01 dE for cont linesearch -0.485E-05
 trial: gam= 0.02468 g(F)=  0.629E-01 g(S)=  0.125E+00 ort =-0.120E-01 (trialstep = 0.909E+00)
 search vector abs. value=  0.193E+00
 bond charge predicted
       N       E                     dE             d eps       ncg     rms          rms(c)
DAV:   1    -0.283571285672E+02   -0.27785E+00   -0.16080E+01  9456   0.932E+01    0.682E+00
DAV:   2    -0.294029627175E+02   -0.10458E+01   -0.11580E+01  8256   0.357E+01    0.102E+01
DAV:   3    -0.282837004350E+02    0.11193E+01   -0.39758E+00  8384   0.252E+01    0.219E+00
DAV:   4    -0.282223444783E+02    0.61356E-01   -0.20125E-01  7904   0.299E+00    0.689E-01
DAV:   5    -0.282183705959E+02    0.39739E-02   -0.26636E-02  8480   0.174E+00    0.206E-01
DAV:   6    -0.282180156873E+02    0.35491E-03   -0.25826E-03  8704   0.527E-01    0.839E-02
DAV:   7    -0.282180245071E+02   -0.88199E-05   -0.47383E-04  8928   0.231E-01    0.535E-02
DAV:   8    -0.282180097591E+02    0.14748E-04   -0.14341E-04  8640   0.130E-01    0.177E-02
DAV:   9    -0.282180070080E+02    0.27511E-05   -0.18407E-05  8928   0.462E-02    0.643E-03
DAV:  10    -0.282180064817E+02    0.52634E-06   -0.12058E-06  9840   0.109E-02    0.113E-03
DAV:  11    -0.282180064159E+02    0.65814E-07   -0.10729E-07 10208   0.259E-03    0.370E-04
DAV:  12    -0.282180064051E+02    0.10806E-07   -0.51918E-09  4608   0.775E-04    0.717E-05
DAV:  13    -0.282180064050E+02    0.43656E-10   -0.83567E-10  4232   0.246E-04
   5 F= -.28218006E+02 E0= -.28217962E+02  d E =-.138727E+00  mag=     0.0000
 trial-energy change:   -0.138727  1 .order   -0.132999   -0.170918   -0.095081
 step:   1.5522(harm=  2.0495)  dis= 0.02865  next Energy=   -28.253638 (dE=-0.174E+00)
 bond charge predicted
       N       E                     dE             d eps       ncg     rms          rms(c)
DAV:   1    -0.283571921366E+02   -0.13919E+00   -0.82300E+00  9456   0.662E+01    0.493E+00
DAV:   2    -0.289016680396E+02   -0.54448E+00   -0.57204E+00  8384   0.260E+01    0.765E+00
DAV:   3    -0.282954875838E+02    0.60618E+00   -0.21924E+00  8264   0.184E+01    0.168E+00
DAV:   4    -0.282592122609E+02    0.36275E-01   -0.11668E-01  8104   0.242E+00    0.470E-01
DAV:   5    -0.282575334636E+02    0.16788E-02   -0.12919E-02  8488   0.119E+00    0.105E-01
DAV:   6    -0.282574175772E+02    0.11589E-03   -0.66189E-04  8376   0.264E-01    0.407E-02
DAV:   7    -0.282574283279E+02   -0.10751E-04   -0.79567E-05  8672   0.878E-02    0.131E-02
DAV:   8    -0.282574284163E+02   -0.88387E-07   -0.13663E-05  8984   0.394E-02    0.799E-03
DAV:   9    -0.282574276638E+02    0.75245E-06   -0.33433E-06  9208   0.195E-02    0.192E-03
DAV:  10    -0.282574275834E+02    0.80423E-07   -0.16358E-07  9232   0.416E-03    0.323E-04
DAV:  11    -0.282574275493E+02    0.34098E-07   -0.80741E-09  5024   0.806E-04    0.126E-04
DAV:  12    -0.282574275505E+02   -0.11541E-08   -0.24441E-09  4384   0.614E-04
   6 F= -.28257428E+02 E0= -.28257851E+02  d E =-.178148E+00  mag=    -0.0000
 curvature:  -0.85 expect dE=-0.341E-01 dE for cont linesearch -0.118E-02
 ZBRENT: extrapolating
 opt :   1.6712  next Energy=   -28.258399 (dE=-0.179E+00)
 bond charge predicted
       N       E                     dE             d eps       ncg     rms          rms(c)
DAV:   1    -0.282614055630E+02   -0.39780E-02   -0.28392E-01  9120   0.123E+01    0.876E-01
DAV:   2    -0.282786613703E+02   -0.17256E-01   -0.18241E-01  8448   0.476E+00    0.143E+00
DAV:   3    -0.282599428475E+02    0.18719E-01   -0.75808E-02  8304   0.323E+00    0.357E-01
DAV:   4    -0.282582936986E+02    0.16491E-02   -0.50215E-03  8144   0.596E-01    0.406E-02
DAV:   5    -0.282582901733E+02    0.35253E-05   -0.27012E-04  8400   0.165E-01    0.152E-02
DAV:   6    -0.282582873210E+02    0.28524E-05   -0.11936E-05 10080   0.320E-02    0.753E-03
DAV:   7    -0.282582875826E+02   -0.26162E-06   -0.17870E-06  8528   0.133E-02    0.156E-03
DAV:   8    -0.282582875087E+02    0.73922E-07   -0.13322E-07  9600   0.441E-03    0.579E-04
DAV:   9    -0.282582874844E+02    0.24324E-07   -0.99564E-09  4928   0.972E-04    0.770E-05
DAV:  10    -0.282582874747E+02    0.96288E-08   -0.15520E-09  4432   0.437E-04
   7 F= -.28258287E+02 E0= -.28258711E+02  d E =-.179008E+00  mag=     0.0000
 curvature:  -0.70 expect dE=-0.333E-01 dE for cont linesearch -0.122E-06
 trial: gam= 0.26311 g(F)=  0.308E-01 g(S)=  0.167E-01 ort =-0.183E-03 (trialstep = 0.106E+01)
 search vector abs. value=  0.607E-01
 bond charge predicted
       N       E                     dE             d eps       ncg     rms          rms(c)
DAV:   1    -0.281307703486E+02    0.12752E+00   -0.57135E+00 10176   0.849E+01    0.155E+00
DAV:   2    -0.283788417391E+02   -0.24807E+00   -0.24035E+00  8064   0.131E+01    0.301E+00
DAV:   3    -0.283046072943E+02    0.74234E-01   -0.33773E-01  8592   0.671E+00    0.624E-01
DAV:   4    -0.283011553741E+02    0.34519E-02   -0.11961E-02  9072   0.119E+00    0.269E-01
DAV:   5    -0.283001936815E+02    0.96169E-03   -0.21063E-03 10560   0.593E-01    0.404E-02
DAV:   6    -0.283002118515E+02   -0.18170E-04   -0.30438E-04  8144   0.180E-01    0.197E-02
DAV:   7    -0.283002135571E+02   -0.17056E-05   -0.83305E-06  9152   0.339E-02    0.451E-03
DAV:   8    -0.283002140635E+02   -0.50637E-06   -0.61180E-07  7872   0.618E-03    0.112E-03
DAV:   9    -0.283002140695E+02   -0.60190E-08   -0.83461E-08  8512   0.373E-03
   8 F= -.28300214E+02 E0= -.28300562E+02  d E =-.419266E-01  mag=     0.0000
 trial-energy change:   -0.041927  1 .order   -0.041915   -0.050360   -0.033470
 step:   3.1657(harm=  3.1657)  dis= 0.06305  next Energy=   -28.333366 (dE=-0.751E-01)
 bond charge predicted
       N       E                     dE             d eps       ncg     rms          rms(c)
DAV:   1    -0.276588341847E+02    0.64138E+00   -0.22756E+01 10192   0.167E+02    0.283E+00
DAV:   2    -0.285629343992E+02   -0.90410E+00   -0.90002E+00  8080   0.251E+01    0.516E+00
DAV:   3    -0.283538216438E+02    0.20911E+00   -0.10833E+00  8928   0.120E+01    0.133E+00
DAV:   4    -0.283376845947E+02    0.16137E-01   -0.47804E-02  8960   0.256E+00    0.544E-01
DAV:   5    -0.283336405870E+02    0.40440E-02   -0.84090E-03 10448   0.118E+00    0.882E-02
DAV:   6    -0.283336969948E+02   -0.56408E-04   -0.11796E-03  8240   0.342E-01    0.407E-02
DAV:   7    -0.283337057587E+02   -0.87640E-05   -0.32877E-05  9184   0.690E-02    0.109E-02
DAV:   8    -0.283337071109E+02   -0.13521E-05   -0.36068E-06  9120   0.176E-02    0.253E-03
DAV:   9    -0.283337070342E+02    0.76715E-07   -0.29396E-07  8576   0.725E-03    0.454E-04
DAV:  10    -0.283337070391E+02   -0.48931E-08   -0.16372E-08  5168   0.110E-03
   9 F= -.28333707E+02 E0= -.28334080E+02  d E =-.754196E-01  mag=    -0.0000
 curvature:  -2.03 expect dE=-0.308E-01 dE for cont linesearch -0.297E-05
 trial: gam= 0.30802 g(F)=  0.960E-02 g(S)=  0.561E-02 ort = 0.298E-03 (trialstep = 0.148E+01)
 search vector abs. value=  0.212E-01
 bond charge predicted
       N       E                     dE             d eps       ncg     rms          rms(c)
DAV:   1    -0.281592541964E+02    0.17445E+00   -0.58710E+00  9984   0.859E+01    0.182E+00
DAV:   2    -0.284091628551E+02   -0.24991E+00   -0.25844E+00  8192   0.138E+01    0.243E+00
DAV:   3    -0.283575509194E+02    0.51612E-01   -0.28649E-01  8496   0.660E+00    0.852E-01
DAV:   4    -0.283489760971E+02    0.85748E-02   -0.20995E-02 10832   0.168E+00    0.220E-01
DAV:   5    -0.283483755126E+02    0.60058E-03   -0.21847E-03  9184   0.406E-01    0.530E-02
DAV:   6    -0.283483738797E+02    0.16329E-05   -0.19667E-04  8160   0.147E-01    0.268E-02
DAV:   7    -0.283483766624E+02   -0.27828E-05   -0.12929E-05  8624   0.359E-02    0.683E-03
DAV:   8    -0.283483771223E+02   -0.45985E-06   -0.19031E-06  8144   0.127E-02    0.101E-03
DAV:   9    -0.283483770754E+02    0.46915E-07   -0.74603E-08  8288   0.256E-03    0.419E-04
DAV:  10    -0.283483770548E+02    0.20621E-07   -0.74886E-09  4992   0.974E-04    0.900E-05
DAV:  11    -0.283483770547E+02    0.60936E-10   -0.17786E-09  4480   0.445E-04
  10 F= -.28348377E+02 E0= -.28348571E+02  d E =-.146700E-01  mag=    -0.0000
 trial-energy change:   -0.014670  1 .order   -0.014605   -0.022696   -0.006514
 step:   2.0599(harm=  2.0793)  dis= 0.02765  next Energy=   -28.349649 (dE=-0.159E-01)
 bond charge predicted
       N       E                     dE             d eps       ncg     rms          rms(c)
DAV:   1    -0.283214572497E+02    0.26920E-01   -0.90011E-01  9968   0.337E+01    0.708E-01
DAV:   2    -0.283594805960E+02   -0.38023E-01   -0.39092E-01  8192   0.542E+00    0.994E-01
DAV:   3    -0.283511085598E+02    0.83720E-02   -0.45303E-02  8368   0.262E+00    0.335E-01
DAV:   4    -0.283497658770E+02    0.13427E-02   -0.31585E-03 10848   0.677E-01    0.871E-02
DAV:   5    -0.283496679640E+02    0.97913E-04   -0.35637E-04  9152   0.167E-01    0.199E-02
DAV:   6    -0.283496675593E+02    0.40468E-06   -0.32268E-05  8176   0.595E-02    0.101E-02
DAV:   7    -0.283496677765E+02   -0.21719E-06   -0.18688E-06  8896   0.136E-02    0.268E-03
DAV:   8    -0.283496677861E+02   -0.96325E-08   -0.27400E-07  8064   0.504E-03    0.394E-04
DAV:   9    -0.283496677738E+02    0.12375E-07   -0.10144E-08  5128   0.100E-03    0.163E-04
DAV:  10    -0.283496677665E+02    0.72214E-08   -0.27469E-09  4528   0.578E-04
  11 F= -.28349668E+02 E0= -.28349852E+02  d E =-.159607E-01  mag=     0.0000
 curvature:  -1.44 expect dE=-0.568E-02 dE for cont linesearch -0.793E-07
 trial: gam= 0.21667 g(F)=  0.267E-02 g(S)=  0.129E-02 ort = 0.342E-04 (trialstep = 0.160E+01)
 search vector abs. value=  0.496E-02
 bond charge predicted
       N       E                     dE             d eps       ncg     rms          rms(c)
DAV:   1    -0.283307121984E+02    0.18956E-01   -0.33540E+00  8448   0.645E+01    0.359E+00
DAV:   2    -0.289517739672E+02   -0.62106E+00   -0.48736E+00  8480   0.231E+01    0.835E+00
DAV:   3    -0.283598004903E+02    0.59197E+00   -0.23505E+00  8416   0.171E+01    0.114E+00
DAV:   4    -0.283549890267E+02    0.48115E-02   -0.54064E-02  7936   0.201E+00    0.605E-01
DAV:   5    -0.283524038211E+02    0.25852E-02   -0.10217E-02  9024   0.123E+00    0.938E-02
DAV:   6    -0.283523143759E+02    0.89445E-04   -0.56514E-04  8112   0.259E-01    0.393E-02
DAV:   7    -0.283523057963E+02    0.85796E-05   -0.33817E-05  8320   0.474E-02    0.770E-03
DAV:   8    -0.283523062270E+02   -0.43068E-06   -0.44336E-06  8272   0.300E-02    0.665E-03
DAV:   9    -0.283523059910E+02    0.23592E-06   -0.11092E-06  8800   0.143E-02    0.118E-03
DAV:  10    -0.283523060634E+02   -0.72368E-07   -0.91856E-08  9088   0.288E-03    0.195E-04
DAV:  11    -0.283523060708E+02   -0.73742E-08   -0.34208E-09  4672   0.882E-04
  12 F= -.28352306E+02 E0= -.28352451E+02  d E =-.263830E-02  mag=     0.0000
 trial-energy change:   -0.002638  1 .order   -0.002666   -0.006334    0.001002
 step:   1.3754(harm=  1.3797)  dis= 0.00856  next Energy=   -28.352376 (dE=-0.271E-02)
 bond charge predicted
       N       E                     dE             d eps       ncg     rms          rms(c)
DAV:   1    -0.283520336432E+02    0.27242E-03   -0.63500E-02  8672   0.902E+00    0.523E-01
DAV:   2    -0.283650763249E+02   -0.13043E-01   -0.95603E-02  8464   0.336E+00    0.114E+00
DAV:   3    -0.283524184168E+02    0.12658E-01   -0.44970E-02  8272   0.254E+00    0.112E-01
DAV:   4    -0.283524243576E+02   -0.59408E-05   -0.98993E-04  7904   0.221E-01    0.763E-02
DAV:   5    -0.283523830895E+02    0.41268E-04   -0.20906E-04  8864   0.177E-01    0.212E-02
DAV:   6    -0.283523777391E+02    0.53504E-05   -0.15798E-05  8464   0.444E-02    0.557E-03
DAV:   7    -0.283523769927E+02    0.74645E-06   -0.14374E-06  8480   0.937E-03    0.119E-03
DAV:   8    -0.283523769395E+02    0.53180E-07   -0.83624E-08  8128   0.315E-03    0.850E-04
DAV:   9    -0.283523769300E+02    0.94915E-08   -0.29156E-08  6752   0.243E-03
  13 F= -.28352377E+02 E0= -.28352528E+02  d E =-.270916E-02  mag=     0.0000
 curvature:  -0.86 expect dE=-0.220E-02 dE for cont linesearch -0.107E-08
 trial: gam= 0.65405 g(F)=  0.596E-03 g(S)=  0.195E-02 ort = 0.248E-05 (trialstep = 0.155E+01)
 search vector abs. value=  0.468E-02
 bond charge predicted
       N       E                     dE             d eps       ncg     rms          rms(c)
DAV:   1    -0.282563558893E+02    0.96021E-01   -0.38064E+00  9056   0.730E+01    0.278E+00
DAV:   2    -0.286864148071E+02   -0.43006E+00   -0.33771E+00  8448   0.187E+01    0.554E+00
DAV:   3    -0.283560054506E+02    0.33041E+00   -0.11385E+00  8224   0.135E+01    0.591E-01
DAV:   4    -0.283559140862E+02    0.91364E-04   -0.30186E-02  8352   0.115E+00    0.427E-01
DAV:   5    -0.283543044899E+02    0.16096E-02   -0.66602E-03  8656   0.964E-01    0.118E-01
DAV:   6    -0.283541374283E+02    0.16706E-03   -0.91183E-04  9200   0.322E-01    0.527E-02
DAV:   7    -0.283541234118E+02    0.14016E-04   -0.15613E-04  8592   0.139E-01    0.239E-02
DAV:   8    -0.283541174981E+02    0.59137E-05   -0.20389E-05  8496   0.534E-02    0.332E-03
DAV:   9    -0.283541174168E+02    0.81303E-07   -0.11547E-06  8272   0.718E-03    0.950E-04
DAV:  10    -0.283541173394E+02    0.77403E-07   -0.10100E-07  8480   0.208E-03    0.222E-04
DAV:  11    -0.283541173299E+02    0.94706E-08   -0.80630E-09  5328   0.640E-04
  14 F= -.28354117E+02 E0= -.28354231E+02  d E =-.174040E-02  mag=     0.0000
 trial-energy change:   -0.001740  1 .order   -0.001713   -0.003963    0.000536
 step:   1.3741(harm=  1.3684)  dis= 0.00740  next Energy=   -28.354148 (dE=-0.177E-02)
 bond charge predicted
       N       E                     dE             d eps       ncg     rms          rms(c)
DAV:   1    -0.283529327564E+02    0.11846E-02   -0.52840E-02  9184   0.842E+00    0.305E-01
DAV:   2    -0.283581293722E+02   -0.51966E-02   -0.41530E-02  8368   0.202E+00    0.639E-01
DAV:   3    -0.283542001847E+02    0.39292E-02   -0.15024E-02  8288   0.146E+00    0.920E-02
DAV:   4    -0.283541716057E+02    0.28579E-04   -0.35030E-04  8176   0.152E-01    0.553E-02
DAV:   5    -0.283541471293E+02    0.24476E-04   -0.81221E-05  8688   0.105E-01    0.920E-03
DAV:   6    -0.283541467928E+02    0.33647E-06   -0.51856E-06  9008   0.226E-02    0.437E-03
DAV:   7    -0.283541467259E+02    0.66910E-07   -0.76101E-07  8608   0.101E-02    0.142E-03
DAV:   8    -0.283541467797E+02   -0.53801E-07   -0.10582E-07  8272   0.362E-03    0.219E-04
DAV:   9    -0.283541467919E+02   -0.12174E-07   -0.42423E-09  4592   0.753E-04    0.145E-04
DAV:  10    -0.283541467913E+02    0.58117E-09   -0.12636E-09  4032   0.435E-04
  15 F= -.28354147E+02 E0= -.28354264E+02  d E =-.176986E-02  mag=    -0.0000
 curvature:  -1.25 expect dE=-0.867E-03 dE for cont linesearch -0.194E-07
 trial: gam= 0.28540 g(F)=  0.538E-03 g(S)=  0.154E-03 ort =-0.852E-05 (trialstep = 0.152E+01)
 search vector abs. value=  0.107E-02
 bond charge predicted
       N       E                     dE             d eps       ncg     rms          rms(c)
DAV:   1    -0.283318922878E+02    0.22255E-01   -0.10039E+00 10752   0.353E+01    0.427E-01
DAV:   2    -0.283591600350E+02   -0.27268E-01   -0.27091E-01  7824   0.414E+00    0.699E-01
DAV:   3    -0.283550698806E+02    0.40902E-02   -0.21483E-02  8688   0.172E+00    0.178E-01
DAV:   4    -0.283547003123E+02    0.36957E-03   -0.96739E-04  9024   0.330E-01    0.702E-02
DAV:   5    -0.283546323523E+02    0.67960E-04   -0.18153E-04 10368   0.151E-01    0.133E-02
DAV:   6    -0.283546327923E+02   -0.44006E-06   -0.26026E-05  8192   0.499E-02    0.672E-03
DAV:   7    -0.283546329159E+02   -0.12356E-06   -0.95559E-07  9776   0.960E-03    0.231E-03
DAV:   8    -0.283546330419E+02   -0.12601E-06   -0.16294E-07  8080   0.372E-03    0.361E-04
DAV:   9    -0.283546330527E+02   -0.10809E-07   -0.57799E-09  5024   0.857E-04    0.128E-04
DAV:  10    -0.283546330604E+02   -0.76943E-08   -0.16995E-09  4256   0.461E-04
  16 F= -.28354633E+02 E0= -.28354775E+02  d E =-.486269E-03  mag=     0.0000
 trial-energy change:   -0.000486  1 .order   -0.000488   -0.001046    0.000071
 step:   1.4215(harm=  1.4215)  dis= 0.00376  next Energy=   -28.354637 (dE=-0.490E-03)
 bond charge predicted
       N       E                     dE             d eps       ncg     rms          rms(c)
DAV:   1    -0.283545421924E+02    0.90860E-04   -0.39985E-03 10720   0.224E+00    0.273E-02
DAV:   2    -0.283546551390E+02   -0.11295E-03   -0.11104E-03  7920   0.265E-01    0.457E-02
DAV:   3    -0.283546371670E+02    0.17972E-04   -0.89796E-05  8416   0.113E-01    0.111E-02
DAV:   4    -0.283546357172E+02    0.14499E-05   -0.37397E-06  8688   0.202E-02    0.469E-03
DAV:   5    -0.283546353833E+02    0.33386E-06   -0.79765E-07 10576   0.104E-02    0.874E-04
DAV:   6    -0.283546353724E+02    0.10900E-07   -0.11769E-07  8096   0.349E-03    0.429E-04
DAV:   7    -0.283546353676E+02    0.47676E-08   -0.33583E-09  4352   0.634E-04
  17 F= -.28354635E+02 E0= -.28354776E+02  d E =-.488576E-03  mag=     0.0000
 curvature:  -1.10 expect dE=-0.638E-04 dE for cont linesearch -0.156E-08
 trial: gam= 0.08032 g(F)=  0.456E-04 g(S)=  0.123E-04 ort =-0.123E-05 (trialstep = 0.150E+01)
 search vector abs. value=  0.647E-04
 bond charge predicted
       N       E                     dE             d eps       ncg     rms          rms(c)
DAV:   1    -0.283541782873E+02    0.45709E-03   -0.18397E-02 10256   0.467E+00    0.826E-02
DAV:   2    -0.283547352406E+02   -0.55695E-03   -0.62908E-03  7392   0.643E-01    0.661E-02
DAV:   3    -0.283547211050E+02    0.14136E-04   -0.35877E-04  9536   0.218E-01    0.549E-02
DAV:   4    -0.283546863027E+02    0.34802E-04   -0.89681E-05  8880   0.115E-01    0.110E-02
DAV:   5    -0.283546848257E+02    0.14770E-05   -0.79512E-06  8720   0.261E-02    0.247E-03
DAV:   6    -0.283546847853E+02    0.40411E-07   -0.53843E-07  8880   0.686E-03    0.111E-03
DAV:   7    -0.283546847877E+02   -0.23629E-08   -0.40422E-08  7648   0.179E-03
  18 F= -.28354685E+02 E0= -.28354809E+02  d E =-.494201E-04  mag=     0.0000
 trial-energy change:   -0.000049  1 .order   -0.000048   -0.000087   -0.000010
 step:   1.6842(harm=  1.6993)  dis= 0.00117  next Energy=   -28.354685 (dE=-0.501E-04)
 bond charge predicted
       N       E                     dE             d eps       ncg     rms          rms(c)
DAV:   1    -0.283546776605E+02    0.71248E-05   -0.28160E-04 10304   0.579E-01    0.102E-02
DAV:   2    -0.283546863865E+02   -0.87260E-05   -0.97437E-05  7456   0.800E-02    0.816E-03
DAV:   3    -0.283546861012E+02    0.28529E-06   -0.55300E-06  9536   0.271E-02    0.682E-03
DAV:   4    -0.283546855939E+02    0.50727E-06   -0.13847E-06  8856   0.143E-02    0.139E-03
DAV:   5    -0.283546855620E+02    0.31895E-07   -0.12415E-07  8480   0.328E-03    0.308E-04
DAV:   6    -0.283546855601E+02    0.19354E-08   -0.71720E-09  4464   0.864E-04
  19 F= -.28354686E+02 E0= -.28354808E+02  d E =-.501925E-04  mag=    -0.0000
 curvature:  -0.94 expect dE=-0.814E-05 dE for cont linesearch -0.454E-08
 trial: gam= 0.14084 g(F)=  0.297E-05 g(S)=  0.566E-05 ort = 0.558E-06 (trialstep = 0.154E+01)
 search vector abs. value=  0.101E-04
 bond charge predicted
       N       E                     dE             d eps       ncg     rms          rms(c)
DAV:   1    -0.283548411891E+02   -0.15563E-03   -0.20661E-03  8368   0.455E-01    0.127E-01
DAV:   2    -0.283553721742E+02   -0.53099E-03   -0.40442E-03  8592   0.744E-01    0.269E-01
DAV:   3    -0.283546991559E+02    0.67302E-03   -0.23059E-03  8368   0.562E-01    0.282E-02
DAV:   4    -0.283546921878E+02    0.69682E-05   -0.58920E-05  7808   0.551E-02    0.987E-03
DAV:   5    -0.283546914577E+02    0.73001E-06   -0.46690E-06  9008   0.233E-02    0.140E-03
DAV:   6    -0.283546914556E+02    0.21309E-08   -0.19452E-07  8304   0.413E-03    0.653E-04
DAV:   7    -0.283546914859E+02   -0.30273E-07   -0.13537E-08  5696   0.918E-04    0.237E-04
DAV:   8    -0.283546915044E+02   -0.18525E-07   -0.30102E-09  4544   0.555E-04    0.642E-05
DAV:   9    -0.283546915081E+02   -0.37289E-08   -0.72097E-10  4160   0.280E-04
  20 F= -.28354692E+02 E0= -.28354808E+02  d E =-.594803E-05  mag=    -0.0000
 trial-energy change:   -0.000006  1 .order   -0.000006   -0.000013    0.000001
 step:   1.4111(harm=  1.4201)  dis= 0.00028  next Energy=   -28.354692 (dE=-0.599E-05)
 bond charge predicted
       N       E                     dE             d eps       ncg     rms          rms(c)
DAV:   1    -0.283546925239E+02   -0.10195E-05   -0.13601E-05  8352   0.369E-02    0.103E-02
DAV:   2    -0.283546962388E+02   -0.37149E-05   -0.26587E-05  8592   0.604E-02    0.218E-02
DAV:   3    -0.283546916237E+02    0.46151E-05   -0.15157E-05  8368   0.456E-02    0.228E-03
DAV:   4    -0.283546915796E+02    0.44098E-07   -0.38852E-07  7808   0.445E-03    0.813E-04
DAV:   5    -0.283546915783E+02    0.13761E-08   -0.30110E-08  6624   0.189E-03
  21 F= -.28354692E+02 E0= -.28354808E+02  d E =-.601816E-05  mag=    -0.0000
 curvature:  -0.82 expect dE=-0.175E-05 dE for cont linesearch -0.422E-09
 trial: gam= 0.25036 g(F)=  0.902E-06 g(S)=  0.124E-05 ort = 0.721E-07 (trialstep = 0.151E+01)
 search vector abs. value=  0.281E-05
 reached required accuracy - stopping structural energy minimisation
 writing wavefunctions
