 running on   24 total cores
 distrk:  each k-point on   24 cores,    1 groups
 distr:  one band on    6 cores,    4 groups
 using from now: INCAR     
 vasp.5.4.4.18Apr17-6-g9f103f2a35 (build Jan 03 2018 06:08:52) complex          
  
 POSCAR found :  2 types and      12 ions
 scaLAPACK will be used
 WARNING: for PREC=h ENMAX is automatically increase by 25 %
        this was not the case for versions prior to vasp.4.4
 WARNING: for PREC=h ENMAX is automatically increase by 25 %
        this was not the case for versions prior to vasp.4.4
 LDA part: xc-table for Pade appr. of Perdew
 POSCAR, INCAR and KPOINTS ok, starting setup
 FFT: planning ...
 WAVECAR not read
 entering main loop
       N       E                     dE             d eps       ncg     rms          rms(c)
DAV:   1     0.162087590593E+04    0.16209E+04   -0.73100E+04 13208   0.177E+03
DAV:   2     0.605669850049E+02   -0.15603E+04   -0.14921E+04 11140   0.577E+02
DAV:   3    -0.679901035057E+02   -0.12856E+03   -0.11631E+03 12532   0.182E+02
DAV:   4    -0.736119373170E+02   -0.56218E+01   -0.55582E+01 12464   0.363E+01
DAV:   5    -0.737465937930E+02   -0.13466E+00   -0.13457E+00 12556   0.540E+00    0.355E+01
DAV:   6    -0.894085935047E+02   -0.15662E+02   -0.18361E+02 12572   0.121E+02    0.432E+01
DAV:   7    -0.642800073400E+02    0.25129E+02   -0.67487E+01 12524   0.810E+01    0.421E+00
DAV:   8    -0.648448645992E+02   -0.56486E+00   -0.49251E+00 13312   0.235E+01    0.736E+00
DAV:   9    -0.645227856852E+02    0.32208E+00   -0.88358E-01 12912   0.161E+01    0.277E+00
DAV:  10    -0.645024961445E+02    0.20290E-01   -0.31523E-01 13136   0.676E+00    0.273E+00
DAV:  11    -0.644501044504E+02    0.52392E-01   -0.10628E-01 12432   0.641E+00    0.554E-01
DAV:  12    -0.644473960967E+02    0.27084E-02   -0.19026E-02 12348   0.838E-01    0.270E-01
DAV:  13    -0.644469177700E+02    0.47833E-03   -0.31437E-03 13692   0.472E-01    0.109E-01
DAV:  14    -0.644468730428E+02    0.44727E-04   -0.25863E-04 14364   0.140E-01    0.454E-02
DAV:  15    -0.644468690655E+02    0.39773E-05   -0.83227E-05 13416   0.815E-02    0.162E-02
DAV:  16    -0.644468701205E+02   -0.10550E-05   -0.69150E-06 13636   0.249E-02    0.930E-03
DAV:  17    -0.644468694091E+02    0.71143E-06   -0.20968E-06 14448   0.123E-02    0.377E-03
DAV:  18    -0.644468694233E+02   -0.14214E-07   -0.41708E-07 14620   0.615E-03    0.161E-03
DAV:  19    -0.644468693730E+02    0.50273E-07   -0.11392E-07 12060   0.296E-03    0.791E-04
DAV:  20    -0.644468693904E+02   -0.17400E-07   -0.26451E-08  8760   0.122E-03    0.405E-04
DAV:  21    -0.644468694320E+02   -0.41593E-07   -0.61250E-09  6208   0.766E-04    0.169E-04
DAV:  22    -0.644468694433E+02   -0.11289E-07   -0.22067E-09  6104   0.335E-04    0.743E-05
DAV:  23    -0.644468694449E+02   -0.15862E-08   -0.77679E-10  6056   0.178E-04
   1 F= -.64446869E+02 E0= -.64446387E+02  d E =-.644469E+02  mag=    -0.0000
 curvature:   0.00 expect dE= 0.000E+00 dE for cont linesearch  0.000E+00
 trial: gam= 0.00000 g(F)=  0.274E+00 g(S)=  0.322E+01 ort = 0.000E+00 (trialstep = 0.100E+01)
 search vector abs. value=  0.349E+01
 bond charge predicted
       N       E                     dE             d eps       ncg     rms          rms(c)
DAV:   1    -0.222507496670E+03   -0.15806E+03   -0.17478E+03 11304   0.395E+02    0.102E+02
DAV:   2    -0.153706811151E+03    0.68801E+02   -0.12260E+03 12884   0.239E+02    0.811E+01
DAV:   3    -0.813089556489E+02    0.72398E+02   -0.40949E+02 12848   0.161E+02    0.394E+01
DAV:   4    -0.692712175257E+02    0.12038E+02   -0.60616E+01 13108   0.747E+01    0.226E+01
DAV:   5    -0.669278972318E+02    0.23433E+01   -0.17219E+01 13548   0.446E+01    0.106E+01
DAV:   6    -0.659064547554E+02    0.10214E+01   -0.19624E+00 13216   0.172E+01    0.747E+00
DAV:   7    -0.652991433012E+02    0.60731E+00   -0.14337E+00 13116   0.156E+01    0.376E+00
DAV:   8    -0.651561665885E+02    0.14298E+00   -0.48120E-01 13856   0.806E+00    0.276E+00
DAV:   9    -0.651523611075E+02    0.38055E-02   -0.33054E-01 12092   0.696E+00    0.220E+00
DAV:  10    -0.651270324648E+02    0.25329E-01   -0.44538E-02 12148   0.390E+00    0.452E-01
DAV:  11    -0.651279116459E+02   -0.87918E-03   -0.11676E-02 14652   0.848E-01    0.635E-01
DAV:  12    -0.651261849310E+02    0.17267E-02   -0.22485E-03 12320   0.587E-01    0.222E-01
DAV:  13    -0.651259806266E+02    0.20430E-03   -0.79906E-04 15264   0.270E-01    0.200E-02
DAV:  14    -0.651260012868E+02   -0.20660E-04   -0.10545E-04 12868   0.600E-02    0.390E-02
DAV:  15    -0.651259964432E+02    0.48436E-05   -0.14967E-05 12128   0.435E-02    0.165E-02
DAV:  16    -0.651259959285E+02    0.51466E-06   -0.10973E-06 14960   0.100E-02    0.109E-02
DAV:  17    -0.651259955955E+02    0.33300E-06   -0.14014E-06 15184   0.145E-02    0.189E-03
DAV:  18    -0.651259955976E+02   -0.20627E-08   -0.30772E-07 10468   0.314E-03    0.139E-03
DAV:  19    -0.651259955425E+02    0.55104E-07   -0.29354E-08  8260   0.171E-03    0.257E-04
DAV:  20    -0.651259955450E+02   -0.25466E-08   -0.95592E-09  6240   0.562E-04
   2 F= -.65125996E+02 E0= -.65125157E+02  d E =-.679126E+00  mag=     0.0000
 trial-energy change:   -0.679126  1 .order   -0.835117   -3.491225    1.820991
 step:   0.6155(harm=  0.6572)  dis= 0.02552  next Energy=   -65.484938 (dE=-0.104E+01)
 bond charge predicted
       N       E                     dE             d eps       ncg     rms          rms(c)
DAV:   1    -0.959137488054E+02   -0.30788E+02   -0.25022E+02 12056   0.132E+02    0.569E+01
DAV:   2    -0.129753983760E+03   -0.33840E+02   -0.46769E+02 11968   0.195E+02    0.600E+01
DAV:   3    -0.663276547086E+02    0.63426E+02   -0.16478E+02 12416   0.112E+02    0.801E+00
DAV:   4    -0.660052864653E+02    0.32237E+00   -0.58462E+00 12872   0.155E+01    0.546E+00
DAV:   5    -0.658429854380E+02    0.16230E+00   -0.16057E+00 12880   0.149E+01    0.674E+00
DAV:   6    -0.655102325619E+02    0.33275E+00   -0.72370E-01 14168   0.136E+01    0.277E+00
DAV:   7    -0.654694868773E+02    0.40746E-01   -0.22314E-01 12440   0.650E+00    0.755E-01
DAV:   8    -0.654677425725E+02    0.17443E-02   -0.45808E-02 12328   0.210E+00    0.691E-01
DAV:   9    -0.654623764497E+02    0.53661E-02   -0.79355E-03 14152   0.807E-01    0.191E-01
DAV:  10    -0.654623714648E+02    0.49849E-05   -0.32464E-03 12472   0.506E-01    0.930E-02
DAV:  11    -0.654622913723E+02    0.80093E-04   -0.30963E-04 12232   0.169E-01    0.423E-02
DAV:  12    -0.654622818196E+02    0.95526E-05   -0.42890E-05 13808   0.815E-02    0.196E-02
DAV:  13    -0.654622795021E+02    0.23175E-05   -0.81033E-06 13360   0.341E-02    0.426E-03
DAV:  14    -0.654622788606E+02    0.64149E-06   -0.74524E-07 12288   0.688E-03    0.168E-03
DAV:  15    -0.654622788451E+02    0.15505E-07   -0.93623E-08 14168   0.273E-03    0.433E-04
DAV:  16    -0.654622788421E+02    0.29904E-08   -0.17468E-08  7768   0.139E-03
   3 F= -.65462279E+02 E0= -.65461538E+02  d E =-.101541E+01  mag=     0.0000
 curvature:  -0.32 expect dE=-0.108E+00 dE for cont linesearch -0.297E-05
 trial: gam= 0.09675 g(F)=  0.728E-01 g(S)=  0.259E+00 ort =-0.566E-02 (trialstep = 0.923E+00)
 search vector abs. value=  0.364E+00
 bond charge predicted
       N       E                     dE             d eps       ncg     rms          rms(c)
DAV:   1    -0.676628599544E+02   -0.22006E+01   -0.49184E+01 13336   0.737E+01    0.149E+01
DAV:   2    -0.690618882497E+02   -0.13990E+01   -0.24000E+01 12408   0.436E+01    0.163E+01
DAV:   3    -0.659634275673E+02    0.30985E+01   -0.93045E+00 12312   0.278E+01    0.451E+00
DAV:   4    -0.658763297400E+02    0.87098E-01   -0.70869E-01 15048   0.123E+01    0.488E+00
DAV:   5    -0.657083342766E+02    0.16800E+00   -0.30333E-01 12992   0.103E+01    0.104E+00
DAV:   6    -0.657244829029E+02   -0.16149E-01   -0.10469E-01 13728   0.357E+00    0.180E+00
DAV:   7    -0.657055739232E+02    0.18909E-01   -0.33924E-02 12256   0.314E+00    0.229E-01
DAV:   8    -0.657055549001E+02    0.19023E-04   -0.47434E-03 13840   0.552E-01    0.109E-01
DAV:   9    -0.657055831606E+02   -0.28260E-04   -0.57788E-04 12080   0.323E-01    0.289E-02
DAV:  10    -0.657055827980E+02    0.36266E-06   -0.50595E-05 12440   0.881E-02    0.141E-02
DAV:  11    -0.657055812188E+02    0.15792E-05   -0.54423E-06 13944   0.292E-02    0.267E-03
DAV:  12    -0.657055809400E+02    0.27872E-06   -0.75378E-07 13176   0.572E-03    0.793E-04
DAV:  13    -0.657055808322E+02    0.10784E-06   -0.49527E-08 10724   0.167E-03    0.525E-04
DAV:  14    -0.657055807868E+02    0.45369E-07   -0.85195E-09  6232   0.925E-04    0.137E-04
DAV:  15    -0.657055807872E+02   -0.38563E-09   -0.20403E-09  6084   0.367E-04
   4 F= -.65705581E+02 E0= -.65705211E+02  d E =-.243302E+00  mag=     0.0000
 trial-energy change:   -0.243302  1 .order   -0.243646   -0.306056   -0.181236
 step:   2.2634(harm=  2.2634)  dis= 0.06083  next Energy=   -65.837500 (dE=-0.375E+00)
 bond charge predicted
       N       E                     dE             d eps       ncg     rms          rms(c)
DAV:   1    -0.703462663387E+02   -0.46407E+01   -0.11000E+02 13376   0.111E+02    0.224E+01
DAV:   2    -0.729551099531E+02   -0.26088E+01   -0.52346E+01 12084   0.654E+01    0.232E+01
DAV:   3    -0.663921861538E+02    0.65629E+01   -0.20450E+01 12284   0.420E+01    0.672E+00
DAV:   4    -0.665483164571E+02   -0.15613E+00   -0.22677E+00 14376   0.195E+01    0.133E+01
DAV:   5    -0.658489308179E+02    0.69939E+00   -0.15929E+00 12576   0.117E+01    0.113E+00
DAV:   6    -0.658476111595E+02    0.13197E-02   -0.13027E-01 11936   0.251E+00    0.407E-01
DAV:   7    -0.658486647241E+02   -0.10536E-02   -0.79640E-03 13684   0.145E+00    0.490E-01
DAV:   8    -0.658474067383E+02    0.12580E-02   -0.36556E-03 12756   0.131E+00    0.138E-01
DAV:   9    -0.658475076657E+02   -0.10093E-03   -0.80302E-04 13012   0.254E-01    0.440E-02
DAV:  10    -0.658474919218E+02    0.15744E-04   -0.90189E-05 13284   0.887E-02    0.121E-02
DAV:  11    -0.658474904489E+02    0.14729E-05   -0.15432E-05 11816   0.329E-02    0.374E-03
DAV:  12    -0.658474900360E+02    0.41298E-06   -0.75200E-07 12188   0.669E-03    0.219E-03
DAV:  13    -0.658474898454E+02    0.19059E-06   -0.70396E-08 12832   0.290E-03    0.480E-04
DAV:  14    -0.658474898381E+02    0.72796E-08   -0.21814E-08  7676   0.101E-03
   5 F= -.65847490E+02 E0= -.65847862E+02  d E =-.385211E+00  mag=    -0.0000
 curvature:  -1.24 expect dE=-0.123E+00 dE for cont linesearch -0.354E-02
 ZBRENT: extrapolating
 opt :   2.5264  next Energy=   -65.851723 (dE=-0.389E+00)
 bond charge predicted
       N       E                     dE             d eps       ncg     rms          rms(c)
DAV:   1    -0.660474245815E+02   -0.19993E+00   -0.45683E+00 13248   0.217E+01    0.459E+00
DAV:   2    -0.661641906242E+02   -0.11677E+00   -0.23535E+00 12296   0.139E+01    0.500E+00
DAV:   3    -0.658743563661E+02    0.28983E+00   -0.87931E-01 12112   0.864E+00    0.137E+00
DAV:   4    -0.658548289125E+02    0.19527E-01   -0.54427E-02 15064   0.254E+00    0.781E-01
DAV:   5    -0.658511204468E+02    0.37085E-02   -0.13750E-02 12488   0.237E+00    0.249E-01
DAV:   6    -0.658508419490E+02    0.27850E-03   -0.31317E-03 12104   0.662E-01    0.739E-02
DAV:   7    -0.658509784906E+02   -0.13654E-03   -0.56364E-04 13488   0.303E-01    0.164E-01
DAV:   8    -0.658508479558E+02    0.13053E-03   -0.28402E-04 12488   0.261E-01    0.199E-02
DAV:   9    -0.658508507949E+02   -0.28392E-05   -0.31919E-05 11840   0.368E-02    0.715E-03
DAV:  10    -0.658508499689E+02    0.82606E-06   -0.23865E-06 12632   0.123E-02    0.155E-03
DAV:  11    -0.658508497884E+02    0.18048E-06   -0.34498E-07 12096   0.489E-03    0.630E-04
DAV:  12    -0.658508497024E+02    0.86045E-07   -0.22271E-08  7972   0.155E-03    0.229E-04
DAV:  13    -0.658508496621E+02    0.40225E-07   -0.47913E-09  6064   0.646E-04    0.108E-04
DAV:  14    -0.658508496613E+02    0.86584E-09   -0.13816E-09  6048   0.295E-04
   6 F= -.65850850E+02 E0= -.65850780E+02  d E =-.388571E+00  mag=    -0.0000
 curvature:  -1.48 expect dE=-0.209E+00 dE for cont linesearch -0.140E-04
 trial: gam= 0.55403 g(F)=  0.676E-01 g(S)=  0.729E-01 ort =-0.185E-02 (trialstep = 0.124E+01)
 search vector abs. value=  0.250E+00
 bond charge predicted
       N       E                     dE             d eps       ncg     rms          rms(c)
DAV:   1    -0.669186070400E+02   -0.10678E+01   -0.11072E+02 12088   0.201E+02    0.207E+01
DAV:   2    -0.737707142124E+02   -0.68521E+01   -0.91631E+01 12712   0.768E+01    0.269E+01
DAV:   3    -0.681580559754E+02    0.56127E+01   -0.21354E+01 12352   0.503E+01    0.158E+01
DAV:   4    -0.662750362345E+02    0.18830E+01   -0.58410E+00 12072   0.328E+01    0.594E+00
DAV:   5    -0.664310131954E+02   -0.15598E+00   -0.21015E+00 13840   0.215E+01    0.828E+00
DAV:   6    -0.659255671083E+02    0.50545E+00   -0.92689E-01 13344   0.149E+01    0.666E-01
DAV:   7    -0.659334153721E+02   -0.78483E-02   -0.16548E-01 12648   0.235E+00    0.342E-01
DAV:   8    -0.659332320310E+02    0.18334E-03   -0.13890E-02 12432   0.114E+00    0.390E-01
DAV:   9    -0.659325707558E+02    0.66128E-03   -0.35236E-03 14192   0.725E-01    0.177E-01
DAV:  10    -0.659324163655E+02    0.15439E-03   -0.52945E-04 12816   0.275E-01    0.463E-02
DAV:  11    -0.659324040581E+02    0.12307E-04   -0.67430E-05 13608   0.103E-01    0.123E-02
DAV:  12    -0.659324043817E+02   -0.32358E-06   -0.14354E-05 12112   0.366E-02    0.394E-03
DAV:  13    -0.659324048848E+02   -0.50307E-06   -0.16594E-06 12224   0.173E-02    0.380E-03
DAV:  14    -0.659324048303E+02    0.54508E-07   -0.29632E-07 12392   0.855E-03    0.863E-04
DAV:  15    -0.659324048668E+02   -0.36507E-07   -0.64311E-08 10672   0.207E-03    0.406E-04
DAV:  16    -0.659324048573E+02    0.94587E-08   -0.10251E-08  6080   0.131E-03
   7 F= -.65932405E+02 E0= -.65932185E+02  d E =-.815552E-01  mag=    -0.0000
 trial-energy change:   -0.081555  1 .order   -0.087930   -0.173540   -0.002321
 step:   1.2656(harm=  1.2606)  dis= 0.03531  next Energy=   -65.932425 (dE=-0.816E-01)
 bond charge predicted
       N       E                     dE             d eps       ncg     rms          rms(c)
DAV:   1    -0.659326534149E+02   -0.24855E-03   -0.30919E-02 12336   0.354E+00    0.365E-01
DAV:   2    -0.659351436081E+02   -0.24902E-02   -0.26458E-02 12688   0.138E+00    0.508E-01
DAV:   3    -0.659333380971E+02    0.18055E-02   -0.81458E-03 12488   0.113E+00    0.405E-01
DAV:   4    -0.659325700059E+02    0.76809E-03   -0.25234E-03 12296   0.713E-01    0.984E-02
DAV:   5    -0.659324641737E+02    0.10583E-03   -0.23960E-04 14936   0.149E-01    0.301E-02
DAV:   6    -0.659324866189E+02   -0.22445E-04   -0.99725E-05 12952   0.205E-01    0.625E-02
DAV:   7    -0.659324595780E+02    0.27041E-04   -0.43232E-05 12616   0.153E-01    0.527E-03
DAV:   8    -0.659324604186E+02   -0.84059E-06   -0.67116E-06 11856   0.164E-02    0.360E-03
DAV:   9    -0.659324605078E+02   -0.89251E-07   -0.47692E-07 14088   0.102E-02    0.137E-03
DAV:  10    -0.659324605972E+02   -0.89334E-07   -0.61235E-08 11032   0.286E-03    0.245E-04
DAV:  11    -0.659324606042E+02   -0.70431E-08   -0.43543E-09  6064   0.547E-04
   8 F= -.65932461E+02 E0= -.65932285E+02  d E =-.816109E-01  mag=    -0.0000
 curvature:  -1.03 expect dE=-0.929E-01 dE for cont linesearch -0.549E-06
 trial: gam= 0.78740 g(F)=  0.254E-01 g(S)=  0.645E-01 ort =-0.365E-03 (trialstep = 0.125E+01)
 search vector abs. value=  0.244E+00
 bond charge predicted
       N       E                     dE             d eps       ncg     rms          rms(c)
DAV:   1    -0.633127257543E+02    0.26197E+01   -0.11576E+02 15448   0.252E+02    0.141E+01
DAV:   2    -0.685689481570E+02   -0.52562E+01   -0.60831E+01 12816   0.549E+01    0.142E+01
DAV:   3    -0.663073566573E+02    0.22616E+01   -0.93837E+00 12184   0.286E+01    0.575E+00
DAV:   4    -0.664865901783E+02   -0.17923E+00   -0.16936E+00 13936   0.150E+01    0.771E+00
DAV:   5    -0.660102838635E+02    0.47631E+00   -0.56635E-01 12656   0.122E+01    0.157E+00
DAV:   6    -0.660699691764E+02   -0.59685E-01   -0.30056E-01 14208   0.923E+00    0.318E+00
DAV:   7    -0.659929978402E+02    0.76971E-01   -0.11626E-01 12680   0.630E+00    0.390E-01
DAV:   8    -0.659943054947E+02   -0.13077E-02   -0.24546E-02 14624   0.125E+00    0.330E-01
DAV:   9    -0.659938973121E+02    0.40818E-03   -0.33489E-03 11920   0.814E-01    0.689E-02
DAV:  10    -0.659939188919E+02   -0.21580E-04   -0.28603E-04 12256   0.185E-01    0.305E-02
DAV:  11    -0.659939162808E+02    0.26111E-05   -0.48596E-05 12208   0.881E-02    0.136E-02
DAV:  12    -0.659939151268E+02    0.11540E-05   -0.83973E-06 11936   0.367E-02    0.533E-03
DAV:  13    -0.659939147966E+02    0.33018E-06   -0.10431E-06 13152   0.112E-02    0.888E-04
DAV:  14    -0.659939147355E+02    0.61063E-07   -0.13759E-07 10744   0.265E-03    0.366E-04
DAV:  15    -0.659939147062E+02    0.29337E-07   -0.10280E-08  6272   0.111E-03    0.108E-04
DAV:  16    -0.659939147075E+02   -0.12624E-08   -0.28213E-09  6152   0.385E-04
   9 F= -.65993915E+02 E0= -.65994990E+02  d E =-.614541E-01  mag=    -0.0000
 trial-energy change:   -0.061454  1 .order   -0.058450   -0.111950   -0.004949
 step:   1.2972(harm=  1.3059)  dis= 0.04646  next Energy=   -65.994012 (dE=-0.616E-01)
 bond charge predicted
       N       E                     dE             d eps       ncg     rms          rms(c)
DAV:   1    -0.659882702510E+02    0.56445E-02   -0.16550E-01 12736   0.949E+00    0.550E-01
DAV:   2    -0.659978284022E+02   -0.95582E-02   -0.10977E-01 12680   0.227E+00    0.577E-01
DAV:   3    -0.659954339566E+02    0.23944E-02   -0.14565E-02 12544   0.142E+00    0.466E-01
DAV:   4    -0.659945164513E+02    0.91751E-03   -0.47919E-03 12312   0.942E-01    0.228E-01
DAV:   5    -0.659940665929E+02    0.44986E-03   -0.82675E-04 14040   0.357E-01    0.878E-02
DAV:   6    -0.659941647958E+02   -0.98203E-04   -0.61772E-04 13032   0.503E-01    0.149E-01
DAV:   7    -0.659940016208E+02    0.16318E-03   -0.24418E-04 12712   0.334E-01    0.109E-02
DAV:   8    -0.659940036940E+02   -0.20732E-05   -0.40454E-05 12032   0.363E-02    0.854E-03
DAV:   9    -0.659940034426E+02    0.25142E-06   -0.23416E-06 13752   0.183E-02    0.263E-03
DAV:  10    -0.659940033824E+02    0.60154E-07   -0.32078E-07 12888   0.390E-03    0.825E-04
DAV:  11    -0.659940033418E+02    0.40629E-07   -0.35038E-08 10344   0.178E-03    0.194E-04
DAV:  12    -0.659940033278E+02    0.14028E-07   -0.36540E-09  6048   0.462E-04    0.861E-05
DAV:  13    -0.659940033243E+02    0.35106E-08   -0.74964E-10  5912   0.265E-04
  10 F= -.65994003E+02 E0= -.65995089E+02  d E =-.615427E-01  mag=     0.0000
 curvature:  -1.74 expect dE=-0.167E-01 dE for cont linesearch -0.359E-07
 trial: gam=-0.03753 g(F)=  0.650E-02 g(S)=  0.306E-02 ort = 0.710E-04 (trialstep = 0.126E+01)
 search vector abs. value=  0.991E-02
 bond charge predicted
       N       E                     dE             d eps       ncg     rms          rms(c)
DAV:   1    -0.662069224096E+02   -0.21292E+00   -0.28445E+00 12088   0.260E+01    0.508E+00
DAV:   2    -0.665311300483E+02   -0.32421E+00   -0.38285E+00 12120   0.174E+01    0.674E+00
DAV:   3    -0.660741264037E+02    0.45700E+00   -0.16065E+00 12320   0.141E+01    0.395E+00
DAV:   4    -0.660069710962E+02    0.67155E-01   -0.31935E-01 12208   0.617E+00    0.865E-01
DAV:   5    -0.660046961718E+02    0.22749E-02   -0.25741E-02 14520   0.223E+00    0.853E-01
DAV:   6    -0.659997954906E+02    0.49007E-02   -0.13192E-02 12904   0.226E+00    0.213E-01
DAV:   7    -0.659995646723E+02    0.23082E-03   -0.19747E-03 12680   0.453E-01    0.452E-02
DAV:   8    -0.659995583593E+02    0.63131E-05   -0.21365E-04 12336   0.105E-01    0.166E-02
DAV:   9    -0.659995576277E+02    0.73155E-06   -0.20259E-05 11976   0.351E-02    0.524E-03
DAV:  10    -0.659995569314E+02    0.69630E-06   -0.18004E-06 12448   0.122E-02    0.278E-03
DAV:  11    -0.659995567611E+02    0.17036E-06   -0.15402E-07 13328   0.608E-03    0.564E-04
DAV:  12    -0.659995566640E+02    0.97021E-07   -0.30212E-08  9360   0.110E-03    0.191E-04
DAV:  13    -0.659995566462E+02    0.17848E-07   -0.22183E-09  6144   0.394E-04    0.842E-05
DAV:  14    -0.659995566408E+02    0.54206E-08   -0.69845E-10  6016   0.261E-04
  11 F= -.65999557E+02 E0= -.66000654E+02  d E =-.555332E-02  mag=     0.0000
 trial-energy change:   -0.005553  1 .order   -0.005511   -0.012035    0.001012
 step:   1.1621(harm=  1.1603)  dis= 0.01229  next Energy=   -65.999595 (dE=-0.559E-02)
 bond charge predicted
       N       E                     dE             d eps       ncg     rms          rms(c)
DAV:   1    -0.660008106083E+02   -0.12540E-02   -0.16640E-02 12040   0.199E+00    0.390E-01
DAV:   2    -0.660028120873E+02   -0.20015E-02   -0.22971E-02 12184   0.134E+00    0.534E-01
DAV:   3    -0.660001470383E+02    0.26650E-02   -0.95862E-03 12184   0.105E+00    0.326E-01
DAV:   4    -0.659996328853E+02    0.51415E-03   -0.18517E-03 12176   0.562E-01    0.637E-02
DAV:   5    -0.659996007585E+02    0.32127E-04   -0.13783E-04 12360   0.113E-01    0.315E-02
DAV:   6    -0.659996005970E+02    0.16145E-06   -0.41084E-05 12640   0.132E-01    0.302E-02
DAV:   7    -0.659995946609E+02    0.59362E-05   -0.12531E-05 12336   0.683E-02    0.333E-03
DAV:   8    -0.659995951212E+02   -0.46034E-06   -0.20014E-06 11984   0.877E-03    0.145E-03
DAV:   9    -0.659995952160E+02   -0.94820E-07   -0.16436E-07 14328   0.424E-03    0.745E-04
DAV:  10    -0.659995952883E+02   -0.72276E-07   -0.15580E-08  6800   0.168E-03    0.136E-04
DAV:  11    -0.659995953022E+02   -0.13937E-07   -0.31728E-09  5928   0.493E-04    0.896E-05
DAV:  12    -0.659995953089E+02   -0.66648E-08   -0.84965E-10  5792   0.229E-04
  12 F= -.65999595E+02 E0= -.66000693E+02  d E =-.559198E-02  mag=    -0.0000
 curvature:  -0.60 expect dE=-0.296E-02 dE for cont linesearch -0.243E-10
 trial: gam= 0.51362 g(F)=  0.158E-02 g(S)=  0.336E-02 ort = 0.633E-06 (trialstep = 0.124E+01)
 search vector abs. value=  0.755E-02
 bond charge predicted
       N       E                     dE             d eps       ncg     rms          rms(c)
DAV:   1    -0.661067769023E+02   -0.10718E+00   -0.16187E+00 12048   0.210E+01    0.375E+00
DAV:   2    -0.663033093350E+02   -0.19653E+00   -0.22023E+00 12296   0.132E+01    0.526E+00
DAV:   3    -0.660764623210E+02    0.22685E+00   -0.95862E-01 12256   0.105E+01    0.371E+00
DAV:   4    -0.660053778494E+02    0.71084E-01   -0.21952E-01 12188   0.708E+00    0.642E-01
DAV:   5    -0.660054351889E+02   -0.57340E-04   -0.25118E-02 14184   0.188E+00    0.695E-01
DAV:   6    -0.660020945051E+02    0.33407E-02   -0.70736E-03 12492   0.160E+00    0.208E-01
DAV:   7    -0.660018562993E+02    0.23821E-03   -0.17322E-03 12320   0.339E-01    0.435E-02
DAV:   8    -0.660018507058E+02    0.55935E-05   -0.12500E-04 12148   0.102E-01    0.223E-02
DAV:   9    -0.660018523971E+02   -0.16913E-05   -0.30900E-05 12272   0.557E-02    0.778E-03
DAV:  10    -0.660018525178E+02   -0.12071E-06   -0.23040E-06 12416   0.181E-02    0.280E-03
DAV:  11    -0.660018527193E+02   -0.20153E-06   -0.28242E-07 12444   0.646E-03    0.520E-04
DAV:  12    -0.660018527847E+02   -0.65353E-07   -0.53964E-08  9964   0.201E-03    0.426E-04
DAV:  13    -0.660018527994E+02   -0.14763E-07   -0.64053E-09  6128   0.860E-04    0.121E-04
DAV:  14    -0.660018528175E+02   -0.18063E-07   -0.13644E-09  5988   0.244E-04    0.250E-05
DAV:  15    -0.660018528170E+02    0.53114E-09   -0.31569E-10  5952   0.110E-04
  13 F= -.66001853E+02 E0= -.66002911E+02  d E =-.225751E-02  mag=    -0.0000
 trial-energy change:   -0.002258  1 .order   -0.002266   -0.006111    0.001579
 step:   0.9844(harm=  0.9844)  dis= 0.00876  next Energy=   -66.002024 (dE=-0.243E-02)
 bond charge predicted
       N       E                     dE             d eps       ncg     rms          rms(c)
DAV:   1    -0.660064205207E+02   -0.45677E-02   -0.67773E-02 12064   0.433E+00    0.769E-01
DAV:   2    -0.660144701003E+02   -0.80496E-02   -0.90003E-02 12208   0.267E+00    0.105E+00
DAV:   3    -0.660042843568E+02    0.10186E-01   -0.37340E-02 12280   0.216E+00    0.658E-01
DAV:   4    -0.660021806564E+02    0.21037E-02   -0.80436E-03 12192   0.112E+00    0.131E-01
DAV:   5    -0.660020685369E+02    0.11212E-03   -0.52523E-04 13912   0.231E-01    0.850E-02
DAV:   6    -0.660020446972E+02    0.23840E-04   -0.23646E-04 12712   0.308E-01    0.629E-02
DAV:   7    -0.660020156543E+02    0.29043E-04   -0.55662E-05 12560   0.138E-01    0.728E-03
DAV:   8    -0.660020152104E+02    0.44386E-06   -0.93924E-06 11960   0.195E-02    0.307E-03
DAV:   9    -0.660020151157E+02    0.94697E-07   -0.42634E-07 13040   0.692E-03    0.122E-03
DAV:  10    -0.660020149794E+02    0.13631E-06   -0.64437E-08 12032   0.180E-03    0.333E-04
DAV:  11    -0.660020149497E+02    0.29700E-07   -0.55760E-09  6448   0.896E-04    0.136E-04
DAV:  12    -0.660020149297E+02    0.19962E-07   -0.17034E-09  5880   0.317E-04    0.480E-05
DAV:  13    -0.660020149252E+02    0.45111E-08   -0.44786E-10  5832   0.166E-04
  14 F= -.66002015E+02 E0= -.66003084E+02  d E =-.241962E-02  mag=    -0.0000
 curvature:  -0.75 expect dE=-0.587E-03 dE for cont linesearch -0.112E-07
 trial: gam= 0.15820 g(F)=  0.672E-03 g(S)=  0.108E-03 ort =-0.106E-04 (trialstep = 0.119E+01)
 search vector abs. value=  0.966E-03
 bond charge predicted
       N       E                     dE             d eps       ncg     rms          rms(c)
DAV:   1    -0.659846175204E+02    0.17397E-01   -0.43808E-01 17128   0.166E+01    0.439E-01
DAV:   2    -0.660053897434E+02   -0.20772E-01   -0.21154E-01 12108   0.263E+00    0.551E-01
DAV:   3    -0.660039507472E+02    0.14390E-02   -0.15463E-02 12920   0.145E+00    0.459E-01
DAV:   4    -0.660028935242E+02    0.10572E-02   -0.35666E-03 12376   0.774E-01    0.130E-01
DAV:   5    -0.660027853462E+02    0.10818E-03   -0.24127E-04 13140   0.163E-01    0.777E-02
DAV:   6    -0.660027754048E+02    0.99414E-05   -0.18259E-04 14760   0.263E-01    0.931E-02
DAV:   7    -0.660027153235E+02    0.60081E-04   -0.12358E-04 13644   0.224E-01    0.176E-02
DAV:   8    -0.660027130909E+02    0.22325E-05   -0.29162E-05 12664   0.371E-02    0.578E-03
DAV:   9    -0.660027130015E+02    0.89436E-07   -0.12728E-06 13168   0.127E-02    0.236E-03
DAV:  10    -0.660027129199E+02    0.81582E-07   -0.15328E-07 12608   0.439E-03    0.533E-04
DAV:  11    -0.660027128851E+02    0.34819E-07   -0.15916E-08  6644   0.128E-03    0.156E-04
DAV:  12    -0.660027128728E+02    0.12325E-07   -0.33497E-09  5976   0.497E-04    0.619E-05
DAV:  13    -0.660027128712E+02    0.16080E-08   -0.10284E-09  5880   0.239E-04
  15 F= -.66002713E+02 E0= -.66003754E+02  d E =-.697946E-03  mag=     0.0000
 trial-energy change:   -0.000698  1 .order   -0.000698   -0.000925   -0.000471
 step:   2.4207(harm=  2.4207)  dis= 0.00625  next Energy=   -66.002957 (dE=-0.942E-03)
 bond charge predicted
       N       E                     dE             d eps       ncg     rms          rms(c)
DAV:   1    -0.659834013061E+02    0.19312E-01   -0.47115E-01 17112   0.171E+01    0.456E-01
DAV:   2    -0.660058394242E+02   -0.22438E-01   -0.22856E-01 12120   0.272E+00    0.572E-01
DAV:   3    -0.660042846440E+02    0.15548E-02   -0.16619E-02 12856   0.150E+00    0.477E-01
DAV:   4    -0.660031449756E+02    0.11397E-02   -0.38540E-03 12360   0.802E-01    0.135E-01
DAV:   5    -0.660030284460E+02    0.11653E-03   -0.26141E-04 13128   0.170E-01    0.807E-02
DAV:   6    -0.660030141172E+02    0.14329E-04   -0.19285E-04 14824   0.268E-01    0.941E-02
DAV:   7    -0.660029531208E+02    0.60996E-04   -0.12867E-04 13624   0.227E-01    0.182E-02
DAV:   8    -0.660029506670E+02    0.24538E-05   -0.30498E-05 12616   0.382E-02    0.602E-03
DAV:   9    -0.660029505599E+02    0.10711E-06   -0.13438E-06 13248   0.129E-02    0.239E-03
DAV:  10    -0.660029504755E+02    0.84372E-07   -0.15902E-07 12560   0.447E-03    0.549E-04
DAV:  11    -0.660029504388E+02    0.36714E-07   -0.16667E-08  6856   0.131E-03    0.160E-04
DAV:  12    -0.660029504268E+02    0.12020E-07   -0.34238E-09  5984   0.503E-04    0.620E-05
DAV:  13    -0.660029504233E+02    0.34561E-08   -0.10486E-09  5904   0.242E-04
  16 F= -.66002950E+02 E0= -.66003959E+02  d E =-.935498E-03  mag=     0.0000
 curvature:  -1.50 expect dE=-0.553E-03 dE for cont linesearch -0.258E-07
 trial: gam= 0.47593 g(F)=  0.272E-03 g(S)=  0.966E-04 ort =-0.407E-05 (trialstep = 0.143E+01)
 search vector abs. value=  0.583E-03
 bond charge predicted
       N       E                     dE             d eps       ncg     rms          rms(c)
DAV:   1    -0.659893359446E+02    0.13614E-01   -0.34493E-01 12760   0.150E+01    0.796E-01
DAV:   2    -0.660144647150E+02   -0.25129E-01   -0.25640E-01 12912   0.347E+00    0.104E+00
DAV:   3    -0.660083833205E+02    0.60814E-02   -0.44509E-02 12640   0.263E+00    0.967E-01
DAV:   4    -0.660036800164E+02    0.47033E-02   -0.13819E-02 12200   0.167E+00    0.197E-01
DAV:   5    -0.660034900825E+02    0.18993E-03   -0.96416E-04 12744   0.217E-01    0.136E-01
DAV:   6    -0.660034074062E+02    0.82676E-04   -0.61677E-04 12720   0.317E-01    0.107E-01
DAV:   7    -0.660033515782E+02    0.55828E-04   -0.27788E-04 12496   0.312E-01    0.501E-02
DAV:   8    -0.660033251310E+02    0.26447E-04   -0.68908E-05 12288   0.944E-02    0.719E-03
DAV:   9    -0.660033250824E+02    0.48534E-07   -0.98199E-06 12080   0.204E-02    0.527E-03
DAV:  10    -0.660033251277E+02   -0.45216E-07   -0.11965E-06 12456   0.948E-03    0.176E-03
DAV:  11    -0.660033251578E+02   -0.30177E-07   -0.12628E-07 12056   0.393E-03    0.503E-04
DAV:  12    -0.660033251979E+02   -0.40087E-07   -0.11335E-08  6184   0.118E-03    0.138E-04
DAV:  13    -0.660033252256E+02   -0.27638E-07   -0.36131E-09  5920   0.542E-04    0.734E-05
DAV:  14    -0.660033252269E+02   -0.13097E-08   -0.72713E-10  5824   0.210E-04
  17 F= -.66003325E+02 E0= -.66004288E+02  d E =-.374804E-03  mag=    -0.0000
 trial-energy change:   -0.000375  1 .order   -0.000374   -0.000525   -0.000223
 step:   2.4963(harm=  2.4963)  dis= 0.00486  next Energy=   -66.003407 (dE=-0.457E-03)
 bond charge predicted
       N       E                     dE             d eps       ncg     rms          rms(c)
DAV:   1    -0.659957475988E+02    0.75776E-02   -0.18893E-01 12760   0.111E+01    0.589E-01
DAV:   2    -0.660094954386E+02   -0.13748E-01   -0.14030E-01 12944   0.257E+00    0.772E-01
DAV:   3    -0.660061436425E+02    0.33518E-02   -0.24303E-02 12576   0.194E+00    0.712E-01
DAV:   4    -0.660035954014E+02    0.25482E-02   -0.75586E-03 12232   0.122E+00    0.146E-01
DAV:   5    -0.660034912370E+02    0.10416E-03   -0.51194E-04 12848   0.159E-01    0.101E-01
DAV:   6    -0.660034675905E+02    0.23647E-04   -0.30107E-04 12736   0.261E-01    0.973E-02
DAV:   7    -0.660034149137E+02    0.52677E-04   -0.19549E-04 12544   0.264E-01    0.343E-02
DAV:   8    -0.660034026822E+02    0.12231E-04   -0.38501E-05 12440   0.628E-02    0.544E-03
DAV:   9    -0.660034024438E+02    0.23847E-06   -0.52536E-06 12472   0.162E-02    0.491E-03
DAV:  10    -0.660034024582E+02   -0.14483E-07   -0.10280E-06 12248   0.914E-03    0.150E-03
DAV:  11    -0.660034024685E+02   -0.10274E-07   -0.94346E-08 11760   0.342E-03    0.371E-04
DAV:  12    -0.660034024977E+02   -0.29198E-07   -0.80434E-09  6096   0.961E-04    0.105E-04
DAV:  13    -0.660034025177E+02   -0.19980E-07   -0.20440E-09  5848   0.407E-04    0.561E-05
DAV:  14    -0.660034025194E+02   -0.17353E-08   -0.42101E-10  5808   0.164E-04
  18 F= -.66003403E+02 E0= -.66004331E+02  d E =-.452096E-03  mag=     0.0000
 curvature:  -1.99 expect dE=-0.161E-02 dE for cont linesearch -0.752E-10
 trial: gam= 2.18322 g(F)=  0.214E-03 g(S)=  0.595E-03 ort =-0.149E-06 (trialstep = 0.268E+00)
 search vector abs. value=  0.359E-02
 bond charge predicted
       N       E                     dE             d eps       ncg     rms          rms(c)
DAV:   1    -0.660010120332E+02    0.23905E-02   -0.60134E-02 16160   0.621E+00    0.213E-01
DAV:   2    -0.660041840629E+02   -0.31720E-02   -0.33010E-02 12384   0.108E+00    0.235E-01
DAV:   3    -0.660037465274E+02    0.43754E-03   -0.30408E-03 12232   0.573E-01    0.161E-01
DAV:   4    -0.660036359175E+02    0.11061E-03   -0.48298E-04 13120   0.278E-01    0.636E-02
DAV:   5    -0.660036128890E+02    0.23029E-04   -0.33725E-05 13344   0.673E-02    0.381E-02
DAV:   6    -0.660036146524E+02   -0.17635E-05   -0.33469E-05 13376   0.116E-01    0.476E-02
DAV:   7    -0.660035972457E+02    0.17407E-04   -0.32059E-05 12768   0.110E-01    0.550E-03
DAV:   8    -0.660035970426E+02    0.20304E-06   -0.59849E-06 12096   0.146E-02    0.205E-03
DAV:   9    -0.660035970896E+02   -0.46992E-07   -0.31718E-07 12712   0.630E-03    0.135E-03
DAV:  10    -0.660035970602E+02    0.29406E-07   -0.45090E-08 11776   0.214E-03    0.278E-04
DAV:  11    -0.660035970403E+02    0.19889E-07   -0.32203E-09  6000   0.733E-04    0.889E-05
DAV:  12    -0.660035970302E+02    0.10088E-07   -0.10367E-09  5864   0.268E-04    0.247E-05
DAV:  13    -0.660035970270E+02    0.32196E-08   -0.26725E-10  5808   0.111E-04
  19 F= -.66003597E+02 E0= -.66004506E+02  d E =-.194508E-03  mag=    -0.0000
 ZBRENT: can't locate minimum, use default step
 trial-energy change:   -0.000195  1 .order   -0.000196   -0.000216   -0.000175
 step:   1.0707(harm=  1.3982)  dis= 0.00582  next Energy=   -66.003968 (dE=-0.565E-03)
 bond charge predicted
       N       E                     dE             d eps       ncg     rms          rms(c)
DAV:   1    -0.659807094165E+02    0.22888E-01   -0.54095E-01 16192   0.186E+01    0.639E-01
DAV:   2    -0.660091278037E+02   -0.28418E-01   -0.29653E-01 12376   0.324E+00    0.703E-01
DAV:   3    -0.660051438455E+02    0.39840E-02   -0.27239E-02 12152   0.170E+00    0.465E-01
DAV:   4    -0.660042408231E+02    0.90302E-03   -0.41292E-03 13224   0.796E-01    0.192E-01
DAV:   5    -0.660040342898E+02    0.20653E-03   -0.30234E-04 13304   0.206E-01    0.114E-01
DAV:   6    -0.660040613207E+02   -0.27031E-04   -0.28728E-04 13288   0.343E-01    0.143E-01
DAV:   7    -0.660039080508E+02    0.15327E-03   -0.28142E-04 12752   0.329E-01    0.160E-02
DAV:   8    -0.660039086440E+02   -0.59314E-06   -0.55464E-05 12112   0.443E-02    0.635E-03
DAV:   9    -0.660039086142E+02    0.29788E-07   -0.33064E-06 12600   0.203E-02    0.407E-03
DAV:  10    -0.660039084928E+02    0.12139E-06   -0.42129E-07 13648   0.647E-03    0.916E-04
DAV:  11    -0.660039084348E+02    0.57964E-07   -0.32403E-08  9360   0.226E-03    0.266E-04
DAV:  12    -0.660039083986E+02    0.36234E-07   -0.67571E-09  6056   0.717E-04    0.655E-05
DAV:  13    -0.660039083867E+02    0.11900E-07   -0.17382E-09  5936   0.304E-04    0.374E-05
DAV:  14    -0.660039083833E+02    0.34233E-08   -0.44963E-10  5872   0.167E-04
  20 F= -.66003908E+02 E0= -.66004759E+02  d E =-.505864E-03  mag=     0.0000
 curvature:  -2.84 expect dE=-0.366E-03 dE for cont linesearch -0.250E-04
 ZBRENT: extrapolating
 opt :   1.3703  next Energy=   -66.003935 (dE=-0.532E-03)
 bond charge predicted
       N       E                     dE             d eps       ncg     rms          rms(c)
DAV:   1    -0.660006819930E+02    0.32264E-02   -0.75149E-02 16072   0.697E+00    0.237E-01
DAV:   2    -0.660046514639E+02   -0.39695E-02   -0.41318E-02 12360   0.121E+00    0.261E-01
DAV:   3    -0.660041211436E+02    0.53032E-03   -0.37822E-03 12248   0.640E-01    0.181E-01
DAV:   4    -0.660039817291E+02    0.13941E-03   -0.60130E-04 13120   0.311E-01    0.715E-02
DAV:   5    -0.660039526677E+02    0.29061E-04   -0.42277E-05 13376   0.758E-02    0.430E-02
DAV:   6    -0.660039551505E+02   -0.24828E-05   -0.41438E-05 13320   0.130E-01    0.536E-02
DAV:   7    -0.660039331204E+02    0.22030E-04   -0.40904E-05 12760   0.124E-01    0.623E-03
DAV:   8    -0.660039329029E+02    0.21750E-06   -0.76305E-06 12112   0.166E-02    0.229E-03
DAV:   9    -0.660039329577E+02   -0.54839E-07   -0.41185E-07 12648   0.709E-03    0.153E-03
DAV:  10    -0.660039329233E+02    0.34466E-07   -0.58192E-08 12120   0.243E-03    0.323E-04
DAV:  11    -0.660039329034E+02    0.19809E-07   -0.41247E-09  6040   0.840E-04    0.983E-05
DAV:  12    -0.660039328914E+02    0.12042E-07   -0.13251E-09  5896   0.297E-04    0.279E-05
DAV:  13    -0.660039328876E+02    0.38490E-08   -0.33845E-10  5816   0.125E-04
  21 F= -.66003933E+02 E0= -.66004761E+02  d E =-.530368E-03  mag=    -0.0000
 curvature:  -3.03 expect dE=-0.432E-03 dE for cont linesearch -0.149E-07
 trial: gam= 0.16662 g(F)=  0.737E-04 g(S)=  0.691E-04 ort =-0.420E-05 (trialstep = 0.488E+00)
 search vector abs. value=  0.241E-03
 bond charge predicted
       N       E                     dE             d eps       ncg     rms          rms(c)
DAV:   1    -0.660039425698E+02   -0.96784E-05   -0.46223E-03 12192   0.136E+00    0.114E-01
DAV:   2    -0.660042178922E+02   -0.27532E-03   -0.30914E-03 12808   0.458E-01    0.155E-01
DAV:   3    -0.660041078727E+02    0.11002E-03   -0.80621E-04 12672   0.393E-01    0.137E-01
DAV:   4    -0.660040099453E+02    0.97927E-04   -0.30903E-04 12408   0.246E-01    0.394E-02
DAV:   5    -0.660040002390E+02    0.97062E-05   -0.42236E-05 15584   0.893E-02    0.314E-02
DAV:   6    -0.660039952507E+02    0.49884E-05   -0.29395E-05 12648   0.105E-01    0.157E-02
DAV:   7    -0.660039938368E+02    0.14138E-05   -0.49562E-06 12120   0.385E-02    0.208E-03
DAV:   8    -0.660039940682E+02   -0.23133E-06   -0.82834E-07 12120   0.630E-03    0.879E-04
DAV:   9    -0.660039940976E+02   -0.29475E-07   -0.46353E-08 11008   0.173E-03    0.371E-04
DAV:  10    -0.660039941304E+02   -0.32760E-07   -0.60111E-09  6152   0.745E-04    0.925E-05
DAV:  11    -0.660039941317E+02   -0.12587E-08   -0.16119E-09  5872   0.390E-04
  22 F= -.66003994E+02 E0= -.66004818E+02  d E =-.612441E-04  mag=    -0.0000
 ZBRENT: can't locate minimum, use default step
 trial-energy change:   -0.000061  1 .order   -0.000062   -0.000069   -0.000054
 step:   1.9528(harm=  2.1633)  dis= 0.00275  next Energy=   -66.004087 (dE=-0.154E-03)
 bond charge predicted
       N       E                     dE             d eps       ncg     rms          rms(c)
DAV:   1    -0.660036359488E+02    0.35818E-03   -0.41591E-02 12184   0.409E+00    0.343E-01
DAV:   2    -0.660061517297E+02   -0.25158E-02   -0.27892E-02 12800   0.138E+00    0.467E-01
DAV:   3    -0.660051436367E+02    0.10081E-02   -0.72973E-03 12976   0.116E+00    0.412E-01
DAV:   4    -0.660042523826E+02    0.89125E-03   -0.27390E-03 12400   0.745E-01    0.118E-01
DAV:   5    -0.660041530261E+02    0.99357E-04   -0.36733E-04 15304   0.253E-01    0.868E-02
DAV:   6    -0.660041201087E+02    0.32917E-04   -0.25449E-04 12584   0.302E-01    0.508E-02
DAV:   7    -0.660041034944E+02    0.16614E-04   -0.45805E-05 12128   0.125E-01    0.622E-03
DAV:   8    -0.660041045061E+02   -0.10117E-05   -0.78174E-06 12128   0.190E-02    0.276E-03
DAV:   9    -0.660041045984E+02   -0.92314E-07   -0.45787E-07 15152   0.605E-03    0.123E-03
DAV:  10    -0.660041047154E+02   -0.11703E-06   -0.59979E-08 11792   0.243E-03    0.274E-04
DAV:  11    -0.660041047199E+02   -0.44638E-08   -0.49674E-09  6128   0.833E-04
  23 F= -.66004105E+02 E0= -.66004915E+02  d E =-.171832E-03  mag=    -0.0000
 curvature:  -1.81 expect dE=-0.988E-04 dE for cont linesearch -0.162E-05
 trial: gam= 0.27633 g(F)=  0.119E-04 g(S)=  0.428E-04 ort = 0.147E-04 (trialstep = 0.781E+00)
 search vector abs. value=  0.813E-04
 bond charge predicted
       N       E                     dE             d eps       ncg     rms          rms(c)
DAV:   1    -0.660043651333E+02   -0.26042E-03   -0.10208E-02 12520   0.159E+00    0.211E-01
DAV:   2    -0.660049154219E+02   -0.55029E-03   -0.71606E-03 12392   0.740E-01    0.268E-01
DAV:   3    -0.660043689063E+02    0.54652E-03   -0.24229E-03 12328   0.576E-01    0.204E-01
DAV:   4    -0.660041733660E+02    0.19554E-03   -0.75911E-04 12304   0.368E-01    0.660E-02
DAV:   5    -0.660041247962E+02    0.48570E-04   -0.89403E-05 14592   0.101E-01    0.952E-03
DAV:   6    -0.660041250391E+02   -0.24296E-06   -0.12758E-05 11992   0.353E-02    0.872E-03
DAV:   7    -0.660041246812E+02    0.35793E-06   -0.23791E-06 12072   0.264E-02    0.355E-03
DAV:   8    -0.660041244409E+02    0.24028E-06   -0.31407E-07 12552   0.711E-03    0.114E-03
DAV:   9    -0.660041243576E+02    0.83379E-07   -0.59811E-08 10696   0.136E-03    0.363E-04
DAV:  10    -0.660041243413E+02    0.16258E-07   -0.63408E-09  5976   0.806E-04    0.104E-04
DAV:  11    -0.660041243336E+02    0.77271E-08   -0.15268E-09  5808   0.309E-04
  24 F= -.66004124E+02 E0= -.66004920E+02  d E =-.196137E-04  mag=     0.0000
 trial-energy change:   -0.000020  1 .order   -0.000035   -0.000046   -0.000025
 step:   1.7042(harm=  1.7042)  dis= 0.00062  next Energy=   -66.004155 (dE=-0.501E-04)
 bond charge predicted
       N       E                     dE             d eps       ncg     rms          rms(c)
DAV:   1    -0.660044774157E+02   -0.35307E-03   -0.14266E-02 12496   0.188E+00    0.249E-01
DAV:   2    -0.660052447810E+02   -0.76737E-03   -0.10007E-02 12392   0.874E-01    0.317E-01
DAV:   3    -0.660044821306E+02    0.76265E-03   -0.33880E-03 12328   0.682E-01    0.241E-01
DAV:   4    -0.660042082702E+02    0.27386E-03   -0.10624E-03 12288   0.435E-01    0.780E-02
DAV:   5    -0.660041405299E+02    0.67740E-04   -0.12496E-04 14600   0.119E-01    0.112E-02
DAV:   6    -0.660041408812E+02   -0.35138E-06   -0.17812E-05 11984   0.414E-02    0.101E-02
DAV:   7    -0.660041404167E+02    0.46449E-06   -0.32460E-06 12096   0.308E-02    0.422E-03
DAV:   8    -0.660041401185E+02    0.29825E-06   -0.43205E-07 12616   0.846E-03    0.135E-03
DAV:   9    -0.660041400238E+02    0.94733E-07   -0.85063E-08 11408   0.162E-03    0.432E-04
DAV:  10    -0.660041400033E+02    0.20496E-07   -0.82628E-09  6000   0.924E-04    0.123E-04
DAV:  11    -0.660041399945E+02    0.87311E-08   -0.20113E-09  5848   0.343E-04
  25 F= -.66004140E+02 E0= -.66004919E+02  d E =-.352747E-04  mag=     0.0000
 curvature:  -1.18 expect dE=-0.923E-04 dE for cont linesearch -0.187E-07
 trial: gam= 1.50522 g(F)=  0.551E-05 g(S)=  0.729E-04 ort = 0.113E-05 (trialstep = 0.295E+00)
 search vector abs. value=  0.266E-03
 bond charge predicted
       N       E                     dE             d eps       ncg     rms          rms(c)
DAV:   1    -0.660042264858E+02   -0.86482E-04   -0.46198E-03 12712   0.110E+00    0.129E-01
DAV:   2    -0.660043996374E+02   -0.17315E-03   -0.26955E-03 12512   0.434E-01    0.142E-01
DAV:   3    -0.660042118061E+02    0.18783E-03   -0.72986E-04 12288   0.281E-01    0.878E-02
DAV:   4    -0.660041910134E+02    0.20793E-04   -0.20171E-04 12920   0.200E-01    0.611E-02
DAV:   5    -0.660041608812E+02    0.30132E-04   -0.50862E-05 14888   0.864E-02    0.684E-03
DAV:   6    -0.660041619783E+02   -0.10971E-05   -0.78372E-06 14072   0.434E-02    0.137E-02
DAV:   7    -0.660041607890E+02    0.11893E-05   -0.32187E-06 12424   0.355E-02    0.218E-03
DAV:   8    -0.660041609642E+02   -0.17517E-06   -0.46323E-07 11888   0.527E-03    0.955E-04
DAV:   9    -0.660041610270E+02   -0.62861E-07   -0.20105E-08  7408   0.136E-03    0.284E-04
DAV:  10    -0.660041610441E+02   -0.17051E-07   -0.82512E-09  5952   0.873E-04    0.885E-05
DAV:  11    -0.660041610465E+02   -0.24374E-08   -0.17407E-09  5808   0.323E-04
  26 F= -.66004161E+02 E0= -.66004927E+02  d E =-.210520E-04  mag=     0.0000
 trial-energy change:   -0.000021  1 .order   -0.000021   -0.000024   -0.000018
 step:   0.9632(harm=  1.2831)  dis= 0.00065  next Energy=   -66.004183 (dE=-0.432E-04)
 bond charge predicted
       N       E                     dE             d eps       ncg     rms          rms(c)
DAV:   1    -0.660045224323E+02   -0.36139E-03   -0.23673E-02 12712   0.248E+00    0.292E-01
DAV:   2    -0.660054257186E+02   -0.90329E-03   -0.13824E-02 12520   0.982E-01    0.321E-01
DAV:   3    -0.660044551140E+02    0.97060E-03   -0.37428E-03 12288   0.637E-01    0.200E-01
DAV:   4    -0.660043445692E+02    0.11054E-03   -0.10366E-03 12856   0.457E-01    0.138E-01
DAV:   5    -0.660041892833E+02    0.15529E-03   -0.25959E-04 14920   0.194E-01    0.152E-02
DAV:   6    -0.660041941314E+02   -0.48481E-05   -0.38876E-05 13952   0.945E-02    0.298E-02
DAV:   7    -0.660041883978E+02    0.57336E-05   -0.15648E-05 12384   0.782E-02    0.495E-03
DAV:   8    -0.660041888624E+02   -0.46460E-06   -0.22543E-06 11920   0.119E-02    0.214E-03
DAV:   9    -0.660041890211E+02   -0.15868E-06   -0.13095E-07 14896   0.297E-03    0.634E-04
DAV:  10    -0.660041890589E+02   -0.37853E-07   -0.19872E-08  7376   0.144E-03    0.171E-04
DAV:  11    -0.660041890649E+02   -0.59736E-08   -0.24702E-09  5960   0.395E-04
  27 F= -.66004189E+02 E0= -.66004926E+02  d E =-.490704E-04  mag=     0.0000
 curvature:  -1.91 expect dE=-0.263E-04 dE for cont linesearch -0.310E-05
 trial: gam=-0.13297 g(F)=  0.236E-05 g(S)=  0.115E-04 ort = 0.208E-04 (trialstep = 0.429E+00)
 search vector abs. value=  0.130E-04
 bond charge predicted
       N       E                     dE             d eps       ncg     rms          rms(c)
DAV:   1    -0.660042353365E+02   -0.46278E-04   -0.60081E-04 12768   0.280E-01    0.684E-02
DAV:   2    -0.660042870044E+02   -0.51668E-04   -0.66226E-04 12144   0.231E-01    0.933E-02
DAV:   3    -0.660042125717E+02    0.74433E-04   -0.28259E-04 12240   0.185E-01    0.613E-02
DAV:   4    -0.660041947028E+02    0.17869E-04   -0.67263E-05 12192   0.108E-01    0.146E-02
DAV:   5    -0.660041928945E+02    0.18083E-05   -0.59135E-06 13184   0.237E-02    0.545E-03
DAV:   6    -0.660041928528E+02    0.41709E-07   -0.10627E-06 12640   0.185E-02    0.471E-03
DAV:   7    -0.660041927410E+02    0.11176E-06   -0.42112E-07 12272   0.102E-02    0.853E-04
DAV:   8    -0.660041928337E+02   -0.92739E-07   -0.76454E-08 10144   0.201E-03    0.327E-04
DAV:   9    -0.660041928474E+02   -0.13657E-07   -0.57257E-09  5808   0.696E-04    0.924E-05
DAV:  10    -0.660041928544E+02   -0.70177E-08   -0.10609E-09  5712   0.241E-04
  28 F= -.66004193E+02 E0= -.66004930E+02  d E =-.378952E-05  mag=     0.0000
 trial-energy change:   -0.000004  1 .order   -0.000004   -0.000005   -0.000003
 step:   0.8517(harm=  1.0056)  dis= 0.00014  next Energy=   -66.004194 (dE=-0.519E-05)
 bond charge predicted
       N       E                     dE             d eps       ncg     rms          rms(c)
DAV:   1    -0.660042359805E+02   -0.43133E-04   -0.58465E-04 12784   0.276E-01    0.674E-02
DAV:   2    -0.660042862124E+02   -0.50232E-04   -0.64441E-04 12152   0.228E-01    0.921E-02
DAV:   3    -0.660042137542E+02    0.72458E-04   -0.27491E-04 12240   0.183E-01    0.604E-02
DAV:   4    -0.660041964236E+02    0.17331E-04   -0.65355E-05 12184   0.107E-01    0.144E-02
DAV:   5    -0.660041946629E+02    0.17607E-05   -0.57395E-06 13160   0.233E-02    0.532E-03
DAV:   6    -0.660041946289E+02    0.34030E-07   -0.10290E-06 12632   0.182E-02    0.467E-03
DAV:   7    -0.660041945161E+02    0.11281E-06   -0.41103E-07 12272   0.101E-02    0.842E-04
DAV:   8    -0.660041946090E+02   -0.92936E-07   -0.74942E-08 10072   0.198E-03    0.325E-04
DAV:   9    -0.660041946213E+02   -0.12253E-07   -0.56570E-09  5792   0.693E-04    0.920E-05
DAV:  10    -0.660041946287E+02   -0.73778E-08   -0.10479E-09  5704   0.242E-04
  29 F= -.66004195E+02 E0= -.66004932E+02  d E =-.556378E-05  mag=    -0.0000
 curvature:  -0.55 expect dE=-0.278E-05 dE for cont linesearch -0.130E-06
 trial: gam= 0.05632 g(F)=  0.928E-06 g(S)=  0.413E-05 ort = 0.175E-05 (trialstep = 0.513E+00)
 search vector abs. value=  0.530E-05
 reached required accuracy - stopping structural energy minimisation
 writing wavefunctions
