   6   6   0   0
  0.1228430E+02  0.4631321E-09  0.4631321E-09  0.6418302E-09  0.5000000E-15
  1.000000000000000E-004
  CAR 
 unknown system                          
     24.77484324    -58.61474092  301      8.81804669      1.00000000
    -58.615  0.0000E+00  0.0000E+00  0.0000E+00  0.0000E+00
    -58.337  0.0000E+00  0.0000E+00  0.0000E+00  0.0000E+00
    -58.059  0.0000E+00  0.0000E+00  0.0000E+00  0.0000E+00
    -57.781  0.0000E+00  0.0000E+00  0.0000E+00  0.0000E+00
    -57.503  0.0000E+00  0.0000E+00  0.0000E+00  0.0000E+00
    -57.225  0.0000E+00  0.0000E+00  0.0000E+00  0.0000E+00
    -56.947  0.0000E+00  0.0000E+00  0.0000E+00  0.0000E+00
    -56.669  0.0000E+00  0.0000E+00  0.0000E+00  0.0000E+00
    -56.391  0.0000E+00  0.0000E+00  0.0000E+00  0.0000E+00
    -56.113  0.0000E+00  0.0000E+00  0.0000E+00  0.0000E+00
    -55.835  0.0000E+00  0.0000E+00  0.0000E+00  0.0000E+00
    -55.557  0.0000E+00  0.0000E+00  0.0000E+00  0.0000E+00
    -55.279  0.0000E+00  0.0000E+00  0.0000E+00  0.0000E+00
    -55.001  0.0000E+00  0.0000E+00  0.0000E+00  0.0000E+00
    -54.723  0.2231E+02  0.2231E+02  0.2277E+01  0.2277E+01
    -54.445  0.0000E+00  0.0000E+00  0.9000E+01  0.9000E+01
    -54.167  0.0000E+00  0.0000E+00  0.9000E+01  0.9000E+01
    -53.889  0.0000E+00  0.0000E+00  0.9000E+01  0.9000E+01
    -53.611  0.0000E+00  0.0000E+00  0.9000E+01  0.9000E+01
    -53.333  0.0000E+00  0.0000E+00  0.9000E+01  0.9000E+01
    -53.055  0.0000E+00  0.0000E+00  0.9000E+01  0.9000E+01
    -52.777  0.0000E+00  0.0000E+00  0.9000E+01  0.9000E+01
    -52.500  0.0000E+00  0.0000E+00  0.9000E+01  0.9000E+01
    -52.222  0.0000E+00  0.0000E+00  0.9000E+01  0.9000E+01
    -51.944  0.0000E+00  0.0000E+00  0.9000E+01  0.9000E+01
    -51.666  0.0000E+00  0.0000E+00  0.9000E+01  0.9000E+01
    -51.388  0.0000E+00  0.0000E+00  0.9000E+01  0.9000E+01
    -51.110  0.0000E+00  0.0000E+00  0.9000E+01  0.9000E+01
    -50.832  0.0000E+00  0.0000E+00  0.9000E+01  0.9000E+01
    -50.554  0.0000E+00  0.0000E+00  0.9000E+01  0.9000E+01
    -50.276  0.0000E+00  0.0000E+00  0.9000E+01  0.9000E+01
    -49.998  0.0000E+00  0.0000E+00  0.9000E+01  0.9000E+01
    -49.720  0.0000E+00  0.0000E+00  0.9000E+01  0.9000E+01
    -49.442  0.0000E+00  0.0000E+00  0.9000E+01  0.9000E+01
    -49.164  0.0000E+00  0.0000E+00  0.9000E+01  0.9000E+01
    -48.886  0.0000E+00  0.0000E+00  0.9000E+01  0.9000E+01
    -48.608  0.0000E+00  0.0000E+00  0.9000E+01  0.9000E+01
    -48.330  0.0000E+00  0.0000E+00  0.9000E+01  0.9000E+01
    -48.052  0.0000E+00  0.0000E+00  0.9000E+01  0.9000E+01
    -47.774  0.0000E+00  0.0000E+00  0.9000E+01  0.9000E+01
    -47.496  0.0000E+00  0.0000E+00  0.9000E+01  0.9000E+01
    -47.218  0.0000E+00  0.0000E+00  0.9000E+01  0.9000E+01
    -46.940  0.0000E+00  0.0000E+00  0.9000E+01  0.9000E+01
    -46.662  0.0000E+00  0.0000E+00  0.9000E+01  0.9000E+01
    -46.384  0.0000E+00  0.0000E+00  0.9000E+01  0.9000E+01
    -46.106  0.0000E+00  0.0000E+00  0.9000E+01  0.9000E+01
    -45.828  0.0000E+00  0.0000E+00  0.9000E+01  0.9000E+01
    -45.550  0.0000E+00  0.0000E+00  0.9000E+01  0.9000E+01
    -45.272  0.0000E+00  0.0000E+00  0.9000E+01  0.9000E+01
    -44.994  0.0000E+00  0.0000E+00  0.9000E+01  0.9000E+01
    -44.716  0.0000E+00  0.0000E+00  0.9000E+01  0.9000E+01
    -44.439  0.0000E+00  0.0000E+00  0.9000E+01  0.9000E+01
    -44.161  0.0000E+00  0.0000E+00  0.9000E+01  0.9000E+01
    -43.883  0.0000E+00  0.0000E+00  0.9000E+01  0.9000E+01
    -43.605  0.0000E+00  0.0000E+00  0.9000E+01  0.9000E+01
    -43.327  0.0000E+00  0.0000E+00  0.9000E+01  0.9000E+01
    -43.049  0.0000E+00  0.0000E+00  0.9000E+01  0.9000E+01
    -42.771  0.0000E+00  0.0000E+00  0.9000E+01  0.9000E+01
    -42.493  0.0000E+00  0.0000E+00  0.9000E+01  0.9000E+01
    -42.215  0.0000E+00  0.0000E+00  0.9000E+01  0.9000E+01
    -41.937  0.0000E+00  0.0000E+00  0.9000E+01  0.9000E+01
    -41.659  0.0000E+00  0.0000E+00  0.9000E+01  0.9000E+01
    -41.381  0.0000E+00  0.0000E+00  0.9000E+01  0.9000E+01
    -41.103  0.0000E+00  0.0000E+00  0.9000E+01  0.9000E+01
    -40.825  0.0000E+00  0.0000E+00  0.9000E+01  0.9000E+01
    -40.547  0.0000E+00  0.0000E+00  0.9000E+01  0.9000E+01
    -40.269  0.0000E+00  0.0000E+00  0.9000E+01  0.9000E+01
    -39.991  0.0000E+00  0.0000E+00  0.9000E+01  0.9000E+01
    -39.713  0.0000E+00  0.0000E+00  0.9000E+01  0.9000E+01
    -39.435  0.0000E+00  0.0000E+00  0.9000E+01  0.9000E+01
    -39.157  0.0000E+00  0.0000E+00  0.9000E+01  0.9000E+01
    -38.879  0.0000E+00  0.0000E+00  0.9000E+01  0.9000E+01
    -38.601  0.0000E+00  0.0000E+00  0.9000E+01  0.9000E+01
    -38.323  0.0000E+00  0.0000E+00  0.9000E+01  0.9000E+01
    -38.045  0.0000E+00  0.0000E+00  0.9000E+01  0.9000E+01
    -37.767  0.0000E+00  0.0000E+00  0.9000E+01  0.9000E+01
    -37.489  0.0000E+00  0.0000E+00  0.9000E+01  0.9000E+01
    -37.211  0.0000E+00  0.0000E+00  0.9000E+01  0.9000E+01
    -36.933  0.0000E+00  0.0000E+00  0.9000E+01  0.9000E+01
    -36.655  0.0000E+00  0.0000E+00  0.9000E+01  0.9000E+01
    -36.378  0.0000E+00  0.0000E+00  0.9000E+01  0.9000E+01
    -36.100  0.0000E+00  0.0000E+00  0.9000E+01  0.9000E+01
    -35.822  0.0000E+00  0.0000E+00  0.9000E+01  0.9000E+01
    -35.544  0.0000E+00  0.0000E+00  0.9000E+01  0.9000E+01
    -35.266  0.0000E+00  0.0000E+00  0.9000E+01  0.9000E+01
    -34.988  0.0000E+00  0.0000E+00  0.9000E+01  0.9000E+01
    -34.710  0.0000E+00  0.0000E+00  0.9000E+01  0.9000E+01
    -34.432  0.0000E+00  0.0000E+00  0.9000E+01  0.9000E+01
    -34.154  0.0000E+00  0.0000E+00  0.9000E+01  0.9000E+01
    -33.876  0.0000E+00  0.0000E+00  0.9000E+01  0.9000E+01
    -33.598  0.0000E+00  0.0000E+00  0.9000E+01  0.9000E+01
    -33.320  0.0000E+00  0.0000E+00  0.9000E+01  0.9000E+01
    -33.042  0.0000E+00  0.0000E+00  0.9000E+01  0.9000E+01
    -32.764  0.0000E+00  0.0000E+00  0.9000E+01  0.9000E+01
    -32.486  0.0000E+00  0.0000E+00  0.9000E+01  0.9000E+01
    -32.208  0.0000E+00  0.0000E+00  0.9000E+01  0.9000E+01
    -31.930  0.0000E+00  0.0000E+00  0.9000E+01  0.9000E+01
    -31.652  0.0000E+00  0.0000E+00  0.9000E+01  0.9000E+01
    -31.374  0.0000E+00  0.0000E+00  0.9000E+01  0.9000E+01
    -31.096  0.0000E+00  0.0000E+00  0.9000E+01  0.9000E+01
    -30.818  0.0000E+00  0.0000E+00  0.9000E+01  0.9000E+01
    -30.540  0.0000E+00  0.0000E+00  0.9000E+01  0.9000E+01
    -30.262  0.0000E+00  0.0000E+00  0.9000E+01  0.9000E+01
    -29.984  0.0000E+00  0.0000E+00  0.9000E+01  0.9000E+01
    -29.706  0.0000E+00  0.0000E+00  0.9000E+01  0.9000E+01
    -29.428  0.0000E+00  0.0000E+00  0.9000E+01  0.9000E+01
    -29.150  0.0000E+00  0.0000E+00  0.9000E+01  0.9000E+01
    -28.872  0.0000E+00  0.0000E+00  0.9000E+01  0.9000E+01
    -28.594  0.0000E+00  0.0000E+00  0.9000E+01  0.9000E+01
    -28.317  0.0000E+00  0.0000E+00  0.9000E+01  0.9000E+01
    -28.039  0.0000E+00  0.0000E+00  0.9000E+01  0.9000E+01
    -27.761  0.0000E+00  0.0000E+00  0.9000E+01  0.9000E+01
    -27.483  0.0000E+00  0.0000E+00  0.9000E+01  0.9000E+01
    -27.205  0.0000E+00  0.0000E+00  0.9000E+01  0.9000E+01
    -26.927  0.0000E+00  0.0000E+00  0.9000E+01  0.9000E+01
    -26.649  0.0000E+00  0.0000E+00  0.9000E+01  0.9000E+01
    -26.371  0.0000E+00  0.0000E+00  0.9000E+01  0.9000E+01
    -26.093  0.0000E+00  0.0000E+00  0.9000E+01  0.9000E+01
    -25.815  0.0000E+00  0.0000E+00  0.9000E+01  0.9000E+01
    -25.537  0.0000E+00  0.0000E+00  0.9000E+01  0.9000E+01
    -25.259  0.0000E+00  0.0000E+00  0.9000E+01  0.9000E+01
    -24.981  0.0000E+00  0.0000E+00  0.9000E+01  0.9000E+01
    -24.703  0.0000E+00  0.0000E+00  0.9000E+01  0.9000E+01
    -24.425  0.0000E+00  0.0000E+00  0.9000E+01  0.9000E+01
    -24.147  0.0000E+00  0.0000E+00  0.9000E+01  0.9000E+01
    -23.869  0.0000E+00  0.0000E+00  0.9000E+01  0.9000E+01
    -23.591  0.0000E+00  0.0000E+00  0.9000E+01  0.9000E+01
    -23.313  0.0000E+00  0.0000E+00  0.9000E+01  0.9000E+01
    -23.035  0.0000E+00  0.0000E+00  0.9000E+01  0.9000E+01
    -22.757  0.0000E+00  0.0000E+00  0.9000E+01  0.9000E+01
    -22.479  0.0000E+00  0.0000E+00  0.9000E+01  0.9000E+01
    -22.201  0.0000E+00  0.0000E+00  0.9000E+01  0.9000E+01
    -21.923  0.0000E+00  0.0000E+00  0.9000E+01  0.9000E+01
    -21.645  0.0000E+00  0.0000E+00  0.9000E+01  0.9000E+01
    -21.367  0.0000E+00  0.0000E+00  0.9000E+01  0.9000E+01
    -21.089  0.0000E+00  0.0000E+00  0.9000E+01  0.9000E+01
    -20.811  0.0000E+00  0.0000E+00  0.9000E+01  0.9000E+01
    -20.533  0.0000E+00  0.0000E+00  0.9000E+01  0.9000E+01
    -20.256  0.0000E+00  0.0000E+00  0.9000E+01  0.9000E+01
    -19.978  0.0000E+00  0.0000E+00  0.9000E+01  0.9000E+01
    -19.700  0.0000E+00  0.0000E+00  0.9000E+01  0.9000E+01
    -19.422  0.0000E+00  0.0000E+00  0.9000E+01  0.9000E+01
    -19.144  0.0000E+00  0.0000E+00  0.9000E+01  0.9000E+01
    -18.866  0.0000E+00  0.0000E+00  0.9000E+01  0.9000E+01
    -18.588  0.0000E+00  0.0000E+00  0.9000E+01  0.9000E+01
    -18.310  0.0000E+00  0.0000E+00  0.9000E+01  0.9000E+01
    -18.032  0.0000E+00  0.0000E+00  0.9000E+01  0.9000E+01
    -17.754  0.0000E+00  0.0000E+00  0.9000E+01  0.9000E+01
    -17.476  0.0000E+00  0.0000E+00  0.9000E+01  0.9000E+01
    -17.198  0.0000E+00  0.0000E+00  0.9000E+01  0.9000E+01
    -16.920  0.0000E+00  0.0000E+00  0.9000E+01  0.9000E+01
    -16.642  0.0000E+00  0.0000E+00  0.9000E+01  0.9000E+01
    -16.364  0.0000E+00  0.0000E+00  0.9000E+01  0.9000E+01
    -16.086  0.0000E+00  0.0000E+00  0.9000E+01  0.9000E+01
    -15.808  0.0000E+00  0.0000E+00  0.9000E+01  0.9000E+01
    -15.530  0.0000E+00  0.0000E+00  0.9000E+01  0.9000E+01
    -15.252  0.0000E+00  0.0000E+00  0.9000E+01  0.9000E+01
    -14.974  0.0000E+00  0.0000E+00  0.9000E+01  0.9000E+01
    -14.696  0.0000E+00  0.0000E+00  0.9000E+01  0.9000E+01
    -14.418  0.0000E+00  0.0000E+00  0.9000E+01  0.9000E+01
    -14.140  0.0000E+00  0.0000E+00  0.9000E+01  0.9000E+01
    -13.862  0.0000E+00  0.0000E+00  0.9000E+01  0.9000E+01
    -13.584  0.0000E+00  0.0000E+00  0.9000E+01  0.9000E+01
    -13.306  0.0000E+00  0.0000E+00  0.9000E+01  0.9000E+01
    -13.028  0.0000E+00  0.0000E+00  0.9000E+01  0.9000E+01
    -12.750  0.0000E+00  0.0000E+00  0.9000E+01  0.9000E+01
    -12.473  0.0000E+00  0.0000E+00  0.9000E+01  0.9000E+01
    -12.195  0.0000E+00  0.0000E+00  0.9000E+01  0.9000E+01
    -11.917  0.0000E+00  0.0000E+00  0.9000E+01  0.9000E+01
    -11.639  0.0000E+00  0.0000E+00  0.9000E+01  0.9000E+01
    -11.361  0.0000E+00  0.0000E+00  0.9000E+01  0.9000E+01
    -11.083  0.0000E+00  0.0000E+00  0.9000E+01  0.9000E+01
    -10.805  0.0000E+00  0.0000E+00  0.9000E+01  0.9000E+01
    -10.527  0.0000E+00  0.0000E+00  0.9000E+01  0.9000E+01
    -10.249  0.0000E+00  0.0000E+00  0.9000E+01  0.9000E+01
     -9.971  0.0000E+00  0.0000E+00  0.9000E+01  0.9000E+01
     -9.693  0.0000E+00  0.0000E+00  0.9000E+01  0.9000E+01
     -9.415  0.0000E+00  0.0000E+00  0.9000E+01  0.9000E+01
     -9.137  0.0000E+00  0.0000E+00  0.9000E+01  0.9000E+01
     -8.859  0.0000E+00  0.0000E+00  0.9000E+01  0.9000E+01
     -8.581  0.0000E+00  0.0000E+00  0.9000E+01  0.9000E+01
     -8.303  0.0000E+00  0.0000E+00  0.9000E+01  0.9000E+01
     -8.025  0.0000E+00  0.0000E+00  0.9000E+01  0.9000E+01
     -7.747  0.0000E+00  0.0000E+00  0.9000E+01  0.9000E+01
     -7.469  0.0000E+00  0.0000E+00  0.9000E+01  0.9000E+01
     -7.191  0.0000E+00  0.0000E+00  0.9000E+01  0.9000E+01
     -6.913  0.0000E+00  0.0000E+00  0.9000E+01  0.9000E+01
     -6.635  0.0000E+00  0.0000E+00  0.9000E+01  0.9000E+01
     -6.357  0.0000E+00  0.0000E+00  0.9000E+01  0.9000E+01
     -6.079  0.0000E+00  0.0000E+00  0.9000E+01  0.9000E+01
     -5.801  0.0000E+00  0.0000E+00  0.9000E+01  0.9000E+01
     -5.523  0.0000E+00  0.0000E+00  0.9000E+01  0.9000E+01
     -5.245  0.0000E+00  0.0000E+00  0.9000E+01  0.9000E+01
     -4.967  0.0000E+00  0.0000E+00  0.9000E+01  0.9000E+01
     -4.689  0.0000E+00  0.0000E+00  0.9000E+01  0.9000E+01
     -4.412  0.0000E+00  0.0000E+00  0.9000E+01  0.9000E+01
     -4.134  0.0000E+00  0.0000E+00  0.9000E+01  0.9000E+01
     -3.856  0.0000E+00  0.0000E+00  0.9000E+01  0.9000E+01
     -3.578  0.0000E+00  0.0000E+00  0.9000E+01  0.9000E+01
     -3.300  0.0000E+00  0.0000E+00  0.9000E+01  0.9000E+01
     -3.022  0.0000E+00  0.0000E+00  0.9000E+01  0.9000E+01
     -2.744  0.0000E+00  0.0000E+00  0.9000E+01  0.9000E+01
     -2.466  0.0000E+00  0.0000E+00  0.9000E+01  0.9000E+01
     -2.188  0.0000E+00  0.0000E+00  0.9000E+01  0.9000E+01
     -1.910  0.3155E-01  0.3155E-01  0.9001E+01  0.9001E+01
     -1.632  0.1500E+00  0.1500E+00  0.9028E+01  0.9028E+01
     -1.354  0.2187E+00  0.2187E+00  0.9080E+01  0.9080E+01
     -1.076  0.2682E+00  0.2682E+00  0.9149E+01  0.9149E+01
     -0.798  0.2705E+00  0.2705E+00  0.9226E+01  0.9226E+01
     -0.520  0.3151E+00  0.3151E+00  0.9304E+01  0.9304E+01
     -0.242  0.3929E+00  0.3929E+00  0.9405E+01  0.9405E+01
      0.036  0.3610E+00  0.3610E+00  0.9514E+01  0.9514E+01
      0.314  0.3844E+00  0.3844E+00  0.9613E+01  0.9613E+01
      0.592  0.4640E+00  0.4640E+00  0.9729E+01  0.9729E+01
      0.870  0.4771E+00  0.4771E+00  0.9864E+01  0.9864E+01
      1.148  0.4691E+00  0.4691E+00  0.9993E+01  0.9993E+01
      1.426  0.5588E+00  0.5588E+00  0.1013E+02  0.1013E+02
      1.704  0.6388E+00  0.6388E+00  0.1030E+02  0.1030E+02
      1.982  0.7614E+00  0.7614E+00  0.1050E+02  0.1050E+02
      2.260  0.6989E+00  0.6989E+00  0.1071E+02  0.1071E+02
      2.538  0.6276E+00  0.6276E+00  0.1089E+02  0.1089E+02
      2.816  0.5692E+00  0.5692E+00  0.1106E+02  0.1106E+02
      3.094  0.8619E+00  0.8619E+00  0.1125E+02  0.1125E+02
      3.372  0.8744E+00  0.8744E+00  0.1149E+02  0.1149E+02
      3.649  0.8754E+00  0.8754E+00  0.1173E+02  0.1173E+02
      3.927  0.8663E+00  0.8663E+00  0.1197E+02  0.1197E+02
      4.205  0.1573E+01  0.1573E+01  0.1231E+02  0.1231E+02
      4.483  0.1277E+01  0.1277E+01  0.1269E+02  0.1269E+02
      4.761  0.1398E+01  0.1398E+01  0.1308E+02  0.1308E+02
      5.039  0.1774E+01  0.1774E+01  0.1351E+02  0.1351E+02
      5.317  0.1595E+01  0.1595E+01  0.1394E+02  0.1394E+02
      5.595  0.2323E+01  0.2323E+01  0.1451E+02  0.1451E+02
      5.873  0.3942E+01  0.3942E+01  0.1550E+02  0.1550E+02
      6.151  0.5302E+01  0.5302E+01  0.1697E+02  0.1697E+02
      6.429  0.3401E+01  0.3401E+01  0.1847E+02  0.1847E+02
      6.707  0.7758E+01  0.7758E+01  0.1998E+02  0.1998E+02
      6.985  0.5037E+01  0.5037E+01  0.2172E+02  0.2172E+02
      7.263  0.1038E+02  0.1038E+02  0.2379E+02  0.2379E+02
      7.541  0.6339E+01  0.6339E+01  0.2525E+02  0.2525E+02
      7.819  0.4127E+01  0.4127E+01  0.2647E+02  0.2647E+02
      8.097  0.2533E+01  0.2533E+01  0.2728E+02  0.2728E+02
      8.375  0.1583E+01  0.1583E+01  0.2781E+02  0.2781E+02
      8.653  0.1442E+01  0.1442E+01  0.2827E+02  0.2827E+02
      8.931  0.1169E+01  0.1169E+01  0.2866E+02  0.2866E+02
      9.209  0.6001E+00  0.6001E+00  0.2888E+02  0.2888E+02
      9.487  0.6484E+00  0.6484E+00  0.2905E+02  0.2905E+02
      9.765  0.9846E+00  0.9846E+00  0.2927E+02  0.2927E+02
     10.043  0.8978E+00  0.8978E+00  0.2957E+02  0.2957E+02
     10.321  0.6384E+00  0.6384E+00  0.2979E+02  0.2979E+02
     10.599  0.8123E+00  0.8123E+00  0.2995E+02  0.2995E+02
     10.877  0.8605E+00  0.8605E+00  0.3020E+02  0.3020E+02
     11.155  0.1032E+01  0.1032E+01  0.3047E+02  0.3047E+02
     11.433  0.1014E+01  0.1014E+01  0.3077E+02  0.3077E+02
     11.710  0.1295E+01  0.1295E+01  0.3110E+02  0.3110E+02
     11.988  0.1021E+01  0.1021E+01  0.3142E+02  0.3142E+02
     12.266  0.1291E+01  0.1291E+01  0.3173E+02  0.3173E+02
     12.544  0.1105E+01  0.1105E+01  0.3205E+02  0.3205E+02
     12.822  0.1073E+01  0.1073E+01  0.3236E+02  0.3236E+02
     13.100  0.1084E+01  0.1084E+01  0.3269E+02  0.3269E+02
     13.378  0.1134E+01  0.1134E+01  0.3301E+02  0.3301E+02
     13.656  0.1173E+01  0.1173E+01  0.3332E+02  0.3332E+02
     13.934  0.1234E+01  0.1234E+01  0.3365E+02  0.3365E+02
     14.212  0.1246E+01  0.1246E+01  0.3400E+02  0.3400E+02
     14.490  0.1125E+01  0.1125E+01  0.3433E+02  0.3433E+02
     14.768  0.1151E+01  0.1151E+01  0.3464E+02  0.3464E+02
     15.046  0.1132E+01  0.1132E+01  0.3496E+02  0.3496E+02
     15.324  0.1099E+01  0.1099E+01  0.3527E+02  0.3527E+02
     15.602  0.1131E+01  0.1131E+01  0.3558E+02  0.3558E+02
     15.880  0.1186E+01  0.1186E+01  0.3591E+02  0.3591E+02
     16.158  0.1444E+01  0.1444E+01  0.3626E+02  0.3626E+02
     16.436  0.1198E+01  0.1198E+01  0.3662E+02  0.3662E+02
     16.714  0.1177E+01  0.1177E+01  0.3696E+02  0.3696E+02
     16.992  0.1287E+01  0.1287E+01  0.3729E+02  0.3729E+02
     17.270  0.1210E+01  0.1210E+01  0.3764E+02  0.3764E+02
     17.548  0.1019E+01  0.1019E+01  0.3795E+02  0.3795E+02
     17.826  0.1164E+01  0.1164E+01  0.3825E+02  0.3825E+02
     18.104  0.9953E+00  0.9953E+00  0.3855E+02  0.3855E+02
     18.382  0.9279E+00  0.9279E+00  0.3882E+02  0.3882E+02
     18.660  0.7936E+00  0.7936E+00  0.3908E+02  0.3908E+02
     18.938  0.6102E+00  0.6102E+00  0.3926E+02  0.3926E+02
     19.216  0.6459E+00  0.6459E+00  0.3944E+02  0.3944E+02
     19.494  0.6194E+00  0.6194E+00  0.3963E+02  0.3963E+02
     19.771  0.5485E+00  0.5485E+00  0.3978E+02  0.3978E+02
     20.049  0.3056E+00  0.3056E+00  0.3992E+02  0.3992E+02
     20.327  0.1333E+00  0.1333E+00  0.3997E+02  0.3997E+02
     20.605  0.3790E-01  0.3790E-01  0.4000E+02  0.4000E+02
     20.883  0.2707E-02  0.2707E-02  0.4000E+02  0.4000E+02
     21.161  0.0000E+00  0.0000E+00  0.4000E+02  0.4000E+02
     21.439  0.0000E+00  0.0000E+00  0.4000E+02  0.4000E+02
     21.717  0.0000E+00  0.0000E+00  0.4000E+02  0.4000E+02
     21.995  0.0000E+00  0.0000E+00  0.4000E+02  0.4000E+02
     22.273  0.0000E+00  0.0000E+00  0.4000E+02  0.4000E+02
     22.551  0.0000E+00  0.0000E+00  0.4000E+02  0.4000E+02
     22.829  0.0000E+00  0.0000E+00  0.4000E+02  0.4000E+02
     23.107  0.0000E+00  0.0000E+00  0.4000E+02  0.4000E+02
     23.385  0.0000E+00  0.0000E+00  0.4000E+02  0.4000E+02
     23.663  0.0000E+00  0.0000E+00  0.4000E+02  0.4000E+02
     23.941  0.0000E+00  0.0000E+00  0.4000E+02  0.4000E+02
     24.219  0.0000E+00  0.0000E+00  0.4000E+02  0.4000E+02
     24.497  0.0000E+00  0.0000E+00  0.4000E+02  0.4000E+02
     24.775  0.0000E+00  0.0000E+00  0.4000E+02  0.4000E+02
