 running on   24 total cores
 distrk:  each k-point on   24 cores,    1 groups
 distr:  one band on    6 cores,    4 groups
 using from now: INCAR     
 vasp.5.4.4.18Apr17-6-g9f103f2a35 (build Jan 03 2018 06:08:52) complex          
  
 POSCAR found :  2 types and       6 ions
 scaLAPACK will be used
 WARNING: for PREC=h ENMAX is automatically increase by 25 %
        this was not the case for versions prior to vasp.4.4
 WARNING: for PREC=h ENMAX is automatically increase by 25 %
        this was not the case for versions prior to vasp.4.4
 LDA part: xc-table for Pade appr. of Perdew
 POSCAR, INCAR and KPOINTS ok, starting setup
 FFT: planning ...
 WAVECAR not read
 entering main loop
       N       E                     dE             d eps       ncg     rms          rms(c)
DAV:   1     0.634273012811E+03    0.63427E+03   -0.32599E+04 11456   0.157E+03
DAV:   2     0.132222218536E+01   -0.63295E+03   -0.60202E+03 10000   0.507E+02
DAV:   3    -0.339686757936E+02   -0.35291E+02   -0.33869E+02 11208   0.140E+02
DAV:   4    -0.347970547515E+02   -0.82838E+00   -0.82648E+00 10752   0.209E+01
DAV:   5    -0.348207722765E+02   -0.23718E-01   -0.23716E-01 11832   0.373E+00    0.253E+01
DAV:   6    -0.479772627843E+02   -0.13156E+02   -0.12337E+02 10952   0.139E+02    0.353E+01
DAV:   7    -0.301595362318E+02    0.17818E+02   -0.42939E+01 11448   0.910E+01    0.707E+00
DAV:   8    -0.303169155564E+02   -0.15738E+00   -0.64263E+00 13824   0.297E+01    0.740E+00
DAV:   9    -0.301455238347E+02    0.17139E+00   -0.23567E+00 10880   0.185E+01    0.382E+00
DAV:  10    -0.300227130175E+02    0.12281E+00   -0.48347E-01 11448   0.841E+00    0.897E-01
DAV:  11    -0.300267689589E+02   -0.40559E-02   -0.29472E-02 12680   0.195E+00    0.643E-01
DAV:  12    -0.300259654474E+02    0.80351E-03   -0.21655E-02 11824   0.232E+00    0.563E-01
DAV:  13    -0.300230982815E+02    0.28672E-02   -0.12006E-02 13104   0.149E+00    0.117E-01
DAV:  14    -0.300231631700E+02   -0.64889E-04   -0.87484E-04 10936   0.251E-01    0.539E-02
DAV:  15    -0.300231908164E+02   -0.27646E-04   -0.93751E-05 12752   0.827E-02    0.216E-02
DAV:  16    -0.300231902448E+02    0.57161E-06   -0.18435E-05 11648   0.496E-02    0.753E-03
DAV:  17    -0.300231903374E+02   -0.92548E-07   -0.23730E-06 12432   0.127E-02    0.557E-03
DAV:  18    -0.300231901445E+02    0.19283E-06   -0.12807E-06 11784   0.131E-02    0.112E-03
DAV:  19    -0.300231900659E+02    0.78666E-07   -0.93605E-08  9824   0.247E-03    0.628E-04
DAV:  20    -0.300231900224E+02    0.43519E-07   -0.12084E-08  5968   0.116E-03    0.106E-04
DAV:  21    -0.300231900192E+02    0.31650E-08   -0.22510E-09  5712   0.459E-04
   1 F= -.30023190E+02 E0= -.30022945E+02  d E =-.300232E+02  mag=    -0.0000
 curvature:   0.00 expect dE= 0.000E+00 dE for cont linesearch  0.000E+00
 trial: gam= 0.00000 g(F)=  0.452E+00 g(S)=  0.324E+01 ort = 0.000E+00 (trialstep = 0.100E+01)
 search vector abs. value=  0.369E+01
 bond charge predicted
       N       E                     dE             d eps       ncg     rms          rms(c)
DAV:   1    -0.155517392653E+03   -0.12549E+03   -0.16500E+03  9664   0.568E+02    0.854E+01
DAV:   2    -0.727093113149E+02    0.82808E+02   -0.77606E+02 11504   0.248E+02    0.570E+01
DAV:   3    -0.525719821336E+02    0.20137E+02   -0.32718E+02 10824   0.180E+02    0.398E+01
DAV:   4    -0.334479703878E+02    0.19124E+02   -0.61054E+01 11552   0.789E+01    0.138E+01
DAV:   5    -0.314195921045E+02    0.20284E+01   -0.49571E+00 12464   0.249E+01    0.721E+00
DAV:   6    -0.310639439787E+02    0.35565E+00   -0.36934E+00 12608   0.199E+01    0.509E+00
DAV:   7    -0.310708525562E+02   -0.69086E-02   -0.21775E+00 13936   0.176E+01    0.869E+00
DAV:   8    -0.306329637992E+02    0.43789E+00   -0.18924E+00 11952   0.139E+01    0.116E+00
DAV:   9    -0.306244301807E+02    0.85336E-02   -0.12097E-01 13888   0.351E+00    0.688E-01
DAV:  10    -0.306227734008E+02    0.16568E-02   -0.28386E-02 10720   0.202E+00    0.274E-01
DAV:  11    -0.306222189448E+02    0.55446E-03   -0.36956E-03 11088   0.696E-01    0.134E-01
DAV:  12    -0.306221219592E+02    0.96986E-04   -0.37902E-04 12248   0.241E-01    0.386E-02
DAV:  13    -0.306221182562E+02    0.37030E-05   -0.73150E-05 11232   0.778E-02    0.645E-03
DAV:  14    -0.306221178250E+02    0.43120E-06   -0.50745E-06 10896   0.263E-02    0.623E-03
DAV:  15    -0.306221178109E+02    0.14092E-07   -0.13958E-06 12920   0.111E-02    0.138E-03
DAV:  16    -0.306221177826E+02    0.28316E-07   -0.16827E-07  9816   0.430E-03    0.130E-03
DAV:  17    -0.306221177416E+02    0.40984E-07   -0.28912E-08  6728   0.206E-03    0.276E-04
DAV:  18    -0.306221177354E+02    0.61536E-08   -0.66080E-09  5576   0.637E-04
   2 F= -.30622118E+02 E0= -.30622296E+02  d E =-.598928E+00  mag=    -0.0000
 trial-energy change:   -0.598928  1 .order   -0.798106   -3.692907    2.096695
 step:   0.5878(harm=  0.6379)  dis= 0.04933  next Energy=   -31.068150 (dE=-0.104E+01)
 bond charge predicted
       N       E                     dE             d eps       ncg     rms          rms(c)
DAV:   1    -0.668820699904E+02   -0.36260E+02   -0.32480E+02 10720   0.208E+02    0.638E+01
DAV:   2    -0.115335277320E+03   -0.48453E+02   -0.66430E+02 10464   0.314E+02    0.589E+01
DAV:   3    -0.371235931105E+02    0.78212E+02   -0.22208E+02 11152   0.144E+02    0.178E+01
DAV:   4    -0.347021404177E+02    0.24215E+01   -0.35349E+00 10592   0.174E+01    0.136E+01
DAV:   5    -0.314198466254E+02    0.32823E+01   -0.58548E+00 12736   0.268E+01    0.618E+00
DAV:   6    -0.312328745048E+02    0.18697E+00   -0.29472E+00 11984   0.225E+01    0.436E+00
DAV:   7    -0.310808006318E+02    0.15207E+00   -0.10633E+00 12720   0.132E+01    0.276E+00
DAV:   8    -0.310636911877E+02    0.17109E-01   -0.18350E-01 11472   0.507E+00    0.183E+00
DAV:   9    -0.310290702110E+02    0.34621E-01   -0.73817E-02 13376   0.242E+00    0.198E-01
DAV:  10    -0.310296749486E+02   -0.60474E-03   -0.46723E-03 10928   0.709E-01    0.285E-01
DAV:  11    -0.310289258061E+02    0.74914E-03   -0.34782E-03 12640   0.599E-01    0.899E-02
DAV:  12    -0.310288705567E+02    0.55249E-04   -0.26482E-04 10888   0.167E-01    0.313E-02
DAV:  13    -0.310288591400E+02    0.11417E-04   -0.35925E-05 13824   0.574E-02    0.704E-03
DAV:  14    -0.310288591282E+02    0.11856E-07   -0.36507E-06 11256   0.224E-02    0.271E-03
DAV:  15    -0.310288591104E+02    0.17770E-07   -0.36332E-07 11552   0.763E-03    0.783E-04
DAV:  16    -0.310288591383E+02   -0.27918E-07   -0.76570E-08  9488   0.303E-03    0.660E-04
DAV:  17    -0.310288591319E+02    0.63883E-08   -0.13079E-08  5792   0.161E-03
   3 F= -.31028859E+02 E0= -.31028819E+02  d E =-.100567E+01  mag=    -0.0000
 curvature:  -0.31 expect dE=-0.699E-01 dE for cont linesearch -0.527E-04
 trial: gam= 0.06723 g(F)=  0.117E+00 g(S)=  0.107E+00 ort =-0.250E-01 (trialstep = 0.918E+00)
 search vector abs. value=  0.237E+00
 bond charge predicted
       N       E                     dE             d eps       ncg     rms          rms(c)
DAV:   1    -0.313270342734E+02   -0.29818E+00   -0.23144E+01 11632   0.132E+02    0.101E+01
DAV:   2    -0.337415620830E+02   -0.24145E+01   -0.23660E+01 10960   0.529E+01    0.142E+01
DAV:   3    -0.312590373550E+02    0.24825E+01   -0.71083E+00 10944   0.379E+01    0.290E+00
DAV:   4    -0.314180949335E+02   -0.15906E+00   -0.16973E+00 11984   0.186E+01    0.609E+00
DAV:   5    -0.311993035848E+02    0.21879E+00   -0.14225E+00 11696   0.135E+01    0.121E+00
DAV:   6    -0.312160021726E+02   -0.16699E-01   -0.25859E-01 13520   0.583E+00    0.209E+00
DAV:   7    -0.311900746198E+02    0.25928E-01   -0.14282E-01 11328   0.549E+00    0.234E-01
DAV:   8    -0.311898399646E+02    0.23466E-03   -0.67148E-03 11216   0.660E-01    0.770E-02
DAV:   9    -0.311898657811E+02   -0.25817E-04   -0.27659E-04 11200   0.138E-01    0.269E-02
DAV:  10    -0.311898706251E+02   -0.48440E-05   -0.18406E-05 12336   0.364E-02    0.738E-03
DAV:  11    -0.311898699307E+02    0.69443E-06   -0.28496E-06 10848   0.180E-02    0.140E-03
DAV:  12    -0.311898697816E+02    0.14911E-06   -0.15768E-07 11184   0.385E-03    0.520E-04
DAV:  13    -0.311898697243E+02    0.57244E-07   -0.97805E-09  6816   0.107E-03    0.153E-04
DAV:  14    -0.311898697051E+02    0.19252E-07   -0.33459E-09  6000   0.513E-04    0.652E-05
DAV:  15    -0.311898697030E+02    0.20555E-08   -0.89034E-10  5616   0.330E-04
   4 F= -.31189870E+02 E0= -.31190070E+02  d E =-.161011E+00  mag=    -0.0000
 trial-energy change:   -0.161011  1 .order   -0.163501   -0.203362   -0.123639
 step:   2.3406(harm=  2.3406)  dis= 0.11530  next Energy=   -31.288233 (dE=-0.259E+00)
 bond charge predicted
       N       E                     dE             d eps       ncg     rms          rms(c)
DAV:   1    -0.317582344371E+02   -0.56836E+00   -0.57053E+01 11792   0.206E+02    0.158E+01
DAV:   2    -0.368819484376E+02   -0.51237E+01   -0.53615E+01 10832   0.825E+01    0.199E+01
DAV:   3    -0.314283457895E+02    0.54536E+01   -0.15114E+01 10848   0.556E+01    0.369E+00
DAV:   4    -0.316659951519E+02   -0.23765E+00   -0.28154E+00 13056   0.227E+01    0.796E+00
DAV:   5    -0.313147716485E+02    0.35122E+00   -0.25988E+00 11616   0.188E+01    0.211E+00
DAV:   6    -0.313205829546E+02   -0.58113E-02   -0.43652E-01 12256   0.858E+00    0.234E+00
DAV:   7    -0.312859934105E+02    0.34590E-01   -0.15420E-01 11104   0.564E+00    0.540E-01
DAV:   8    -0.312837446311E+02    0.22488E-02   -0.17342E-02 12672   0.130E+00    0.195E-01
DAV:   9    -0.312836920123E+02    0.52619E-04   -0.13740E-03 11408   0.458E-01    0.687E-02
DAV:  10    -0.312836980079E+02   -0.59956E-05   -0.19192E-04 11280   0.156E-01    0.143E-02
DAV:  11    -0.312836943616E+02    0.36463E-05   -0.22813E-05 12464   0.507E-02    0.109E-02
DAV:  12    -0.312836932282E+02    0.11335E-05   -0.47165E-06 11168   0.252E-02    0.131E-03
DAV:  13    -0.312836931342E+02    0.93994E-07   -0.21082E-07 10944   0.502E-03    0.721E-04
DAV:  14    -0.312836930864E+02    0.47763E-07   -0.21858E-08  7040   0.200E-03    0.196E-04
DAV:  15    -0.312836930769E+02    0.95442E-08   -0.52568E-09  5664   0.727E-04
   5 F= -.31283693E+02 E0= -.31283158E+02  d E =-.254834E+00  mag=    -0.0000
 curvature:  -1.25 expect dE=-0.168E+00 dE for cont linesearch -0.738E-04
 trial: gam= 0.66916 g(F)=  0.540E-01 g(S)=  0.801E-01 ort = 0.374E-02 (trialstep = 0.116E+01)
 search vector abs. value=  0.245E+00
 bond charge predicted
       N       E                     dE             d eps       ncg     rms          rms(c)
DAV:   1    -0.300865233003E+02    0.11972E+01   -0.71093E+01 12512   0.265E+02    0.117E+01
DAV:   2    -0.343876636681E+02   -0.43011E+01   -0.51616E+01 11232   0.685E+01    0.171E+01
DAV:   3    -0.319824669770E+02    0.24052E+01   -0.14443E+01 10960   0.409E+01    0.898E+00
DAV:   4    -0.316299542291E+02    0.35251E+00   -0.40020E+00 11008   0.241E+01    0.456E+00
DAV:   5    -0.314272339063E+02    0.20272E+00   -0.63061E-01 12256   0.107E+01    0.178E+00
DAV:   6    -0.315014474491E+02   -0.74214E-01   -0.89857E-01 11408   0.132E+01    0.395E+00
DAV:   7    -0.314047943298E+02    0.96653E-01   -0.49408E-01 10944   0.858E+00    0.295E-01
DAV:   8    -0.314047043672E+02    0.89963E-04   -0.19217E-02 11024   0.999E-01    0.167E-01
DAV:   9    -0.314046238233E+02    0.80544E-04   -0.10086E-03 12576   0.342E-01    0.989E-02
DAV:  10    -0.314046086798E+02    0.15144E-04   -0.23077E-04 13600   0.174E-01    0.173E-02
DAV:  11    -0.314046082670E+02    0.41279E-06   -0.31215E-05 11104   0.702E-02    0.681E-03
DAV:  12    -0.314046084076E+02   -0.14059E-06   -0.24923E-06 11728   0.181E-02    0.154E-03
DAV:  13    -0.314046084224E+02   -0.14805E-07   -0.20430E-07 10848   0.465E-03    0.681E-04
DAV:  14    -0.314046084519E+02   -0.29539E-07   -0.24071E-08  7936   0.189E-03    0.145E-04
DAV:  15    -0.314046084543E+02   -0.23683E-08   -0.33698E-09  5600   0.593E-04
   6 F= -.31404608E+02 E0= -.31404224E+02  d E =-.120915E+00  mag=    -0.0000
 trial-energy change:   -0.120915  1 .order   -0.122092   -0.158591   -0.085593
 step:   2.9692(harm=  2.5217)  dis= 0.09580  next Energy=   -31.466838 (dE=-0.183E+00)
 bond charge predicted
       N       E                     dE             d eps       ncg     rms          rms(c)
DAV:   1    -0.278889318519E+02    0.35157E+01   -0.17719E+02 12224   0.400E+02    0.166E+01
DAV:   2    -0.367139767152E+02   -0.88250E+01   -0.11353E+02 10992   0.983E+01    0.226E+01
DAV:   3    -0.326797922832E+02    0.40342E+01   -0.26137E+01 11168   0.536E+01    0.128E+01
DAV:   4    -0.319716406843E+02    0.70815E+00   -0.85943E+00 10976   0.314E+01    0.698E+00
DAV:   5    -0.314584070342E+02    0.51323E+00   -0.14067E+00 11584   0.159E+01    0.197E+00
DAV:   6    -0.316162128992E+02   -0.15781E+00   -0.14383E+00 11952   0.157E+01    0.558E+00
DAV:   7    -0.314268651394E+02    0.18935E+00   -0.96680E-01 11456   0.115E+01    0.453E-01
DAV:   8    -0.314267405270E+02    0.12461E-03   -0.34503E-02 11648   0.151E+00    0.259E-01
DAV:   9    -0.314266670723E+02    0.73455E-04   -0.23498E-03 11024   0.627E-01    0.147E-01
DAV:  10    -0.314266241215E+02    0.42951E-04   -0.63347E-04 12816   0.284E-01    0.314E-02
DAV:  11    -0.314266197135E+02    0.44080E-05   -0.64625E-05 10784   0.814E-02    0.632E-03
DAV:  12    -0.314266198038E+02   -0.90346E-07   -0.32494E-06 11696   0.186E-02    0.279E-03
DAV:  13    -0.314266198486E+02   -0.44776E-07   -0.37567E-07 11056   0.664E-03    0.870E-04
DAV:  14    -0.314266198867E+02   -0.38128E-07   -0.46992E-08  9712   0.225E-03    0.343E-04
DAV:  15    -0.314266198857E+02    0.98407E-09   -0.71308E-09  5952   0.111E-03
   7 F= -.31426620E+02 E0= -.31426163E+02  d E =-.142927E+00  mag=    -0.0000
 curvature:  -2.02 expect dE=-0.809E+00 dE for cont linesearch -0.256E-01
 ZBRENT: interpolating
 opt :   2.1902  next Energy=   -31.448354 (dE=-0.165E+00)
 bond charge predicted
       N       E                     dE             d eps       ncg     rms          rms(c)
DAV:   1    -0.307335400382E+02    0.69308E+00   -0.27580E+01 11440   0.180E+02    0.825E+00
DAV:   2    -0.329752324900E+02   -0.22417E+01   -0.21297E+01 10864   0.470E+01    0.110E+01
DAV:   3    -0.315246562885E+02    0.14506E+01   -0.48720E+00 10752   0.290E+01    0.288E+00
DAV:   4    -0.315645623911E+02   -0.39906E-01   -0.87130E-01 12112   0.136E+01    0.407E+00
DAV:   5    -0.314481757013E+02    0.11639E+00   -0.57462E-01 11744   0.101E+01    0.833E-01
DAV:   6    -0.314689214505E+02   -0.20746E-01   -0.20796E-01 13184   0.579E+00    0.199E+00
DAV:   7    -0.314436345962E+02    0.25287E-01   -0.11847E-01 11088   0.546E+00    0.155E-01
DAV:   8    -0.314437369784E+02   -0.10238E-03   -0.66841E-03 10704   0.623E-01    0.139E-01
DAV:   9    -0.314436451661E+02    0.91812E-04   -0.55562E-04 12544   0.298E-01    0.408E-02
DAV:  10    -0.314436517520E+02   -0.65859E-05   -0.60050E-05 11088   0.715E-02    0.996E-03
DAV:  11    -0.314436511072E+02    0.64480E-06   -0.59856E-06 12400   0.281E-02    0.370E-03
DAV:  12    -0.314436507263E+02    0.38090E-06   -0.70949E-07 12896   0.110E-02    0.781E-04
DAV:  13    -0.314436506989E+02    0.27430E-07   -0.78577E-08  9888   0.291E-03    0.314E-04
DAV:  14    -0.314436506785E+02    0.20389E-07   -0.72698E-09  6032   0.109E-03    0.879E-05
DAV:  15    -0.314436506735E+02    0.49677E-08   -0.17474E-09  5344   0.462E-04
   8 F= -.31443651E+02 E0= -.31443097E+02  d E =-.159958E+00  mag=    -0.0000
 curvature:  -1.71 expect dE=-0.335E+00 dE for cont linesearch -0.939E-05
 trial: gam= 1.60708 g(F)=  0.499E-01 g(S)=  0.146E+00 ort =-0.116E-02 (trialstep = 0.406E+00)
 search vector abs. value=  0.825E+00
 bond charge predicted
       N       E                     dE             d eps       ncg     rms          rms(c)
DAV:   1    -0.305473458131E+02    0.89630E+00   -0.33232E+01 13648   0.202E+02    0.732E+00
DAV:   2    -0.326452428973E+02   -0.20979E+01   -0.21053E+01 10784   0.444E+01    0.957E+00
DAV:   3    -0.315791256180E+02    0.10661E+01   -0.39244E+00 10768   0.260E+01    0.265E+00
DAV:   4    -0.316132229150E+02   -0.34097E-01   -0.74832E-01 12016   0.125E+01    0.359E+00
DAV:   5    -0.315169054310E+02    0.96317E-01   -0.39857E-01 11568   0.881E+00    0.656E-01
DAV:   6    -0.315206185810E+02   -0.37132E-02   -0.75264E-02 13200   0.332E+00    0.102E+00
DAV:   7    -0.315142926947E+02    0.63259E-02   -0.33421E-02 11184   0.267E+00    0.144E-01
DAV:   8    -0.315142127364E+02    0.79958E-04   -0.23183E-03 10928   0.456E-01    0.954E-02
DAV:   9    -0.315141879169E+02    0.24819E-04   -0.28658E-04 12544   0.218E-01    0.289E-02
DAV:  10    -0.315141901383E+02   -0.22215E-05   -0.33333E-05 11088   0.720E-02    0.712E-03
DAV:  11    -0.315141897474E+02    0.39094E-06   -0.25647E-06 11680   0.171E-02    0.204E-03
DAV:  12    -0.315141895841E+02    0.16324E-06   -0.24619E-07 11168   0.560E-03    0.512E-04
DAV:  13    -0.315141895358E+02    0.48323E-07   -0.22591E-08  7584   0.159E-03    0.172E-04
DAV:  14    -0.315141895288E+02    0.69977E-08   -0.46556E-09  5632   0.819E-04
   9 F= -.31514190E+02 E0= -.31513718E+02  d E =-.705389E-01  mag=     0.0000
 trial-energy change:   -0.070539  1 .order   -0.069772   -0.078657   -0.060887
 step:   1.1956(harm=  1.7975)  dis= 0.08509  next Energy=   -31.579017 (dE=-0.135E+00)
 bond charge predicted
       N       E                     dE             d eps       ncg     rms          rms(c)
DAV:   1    -0.296735667455E+02    0.18406E+01   -0.14316E+02 16320   0.387E+02    0.152E+01
DAV:   2    -0.367066017019E+02   -0.70330E+01   -0.70726E+01 11648   0.886E+01    0.190E+01
DAV:   3    -0.317594463897E+02    0.49472E+01   -0.13518E+01 10768   0.519E+01    0.387E+00
DAV:   4    -0.319579015649E+02   -0.19846E+00   -0.25559E+00 12192   0.229E+01    0.776E+00
DAV:   5    -0.316249906904E+02    0.33291E+00   -0.27059E+00 12256   0.182E+01    0.215E+00
DAV:   6    -0.316105778346E+02    0.14413E-01   -0.33751E-01 11888   0.752E+00    0.187E+00
DAV:   7    -0.315908164708E+02    0.19761E-01   -0.13839E-01 10992   0.520E+00    0.414E-01
DAV:   8    -0.315896000527E+02    0.12164E-02   -0.11393E-02 10928   0.112E+00    0.154E-01
DAV:   9    -0.315895659385E+02    0.34114E-04   -0.11234E-03 12704   0.310E-01    0.542E-02
DAV:  10    -0.315895847372E+02   -0.18799E-04   -0.14155E-04 10976   0.139E-01    0.167E-02
DAV:  11    -0.315895832058E+02    0.15314E-05   -0.93015E-06 11520   0.302E-02    0.778E-03
DAV:  12    -0.315895823566E+02    0.84918E-06   -0.36246E-06 12048   0.186E-02    0.286E-03
DAV:  13    -0.315895822912E+02    0.65378E-07   -0.55478E-07 10896   0.854E-03    0.695E-04
DAV:  14    -0.315895822544E+02    0.36844E-07   -0.41608E-08  8800   0.265E-03    0.422E-04
DAV:  15    -0.315895822561E+02   -0.17244E-08   -0.83421E-09  5632   0.132E-03
  10 F= -.31589582E+02 E0= -.31589491E+02  d E =-.145932E+00  mag=     0.0000
 curvature:  -3.11 expect dE=-0.309E+00 dE for cont linesearch -0.332E-02
 ZBRENT: extrapolating
 opt :   1.3904  next Energy=   -31.592473 (dE=-0.149E+00)
 bond charge predicted
       N       E                     dE             d eps       ncg     rms          rms(c)
DAV:   1    -0.313268651946E+02    0.26272E+00   -0.72680E+00 11424   0.976E+01    0.344E+00
DAV:   2    -0.317955220004E+02   -0.46866E+00   -0.49344E+00 10800   0.210E+01    0.409E+00
DAV:   3    -0.316124395763E+02    0.18308E+00   -0.81801E-01 10768   0.115E+01    0.145E+00
DAV:   4    -0.316132086863E+02   -0.76911E-03   -0.16309E-01 11600   0.561E+00    0.166E+00
DAV:   5    -0.315929662558E+02    0.20242E-01   -0.80456E-02 11376   0.450E+00    0.379E-01
DAV:   6    -0.315916668227E+02    0.12994E-02   -0.94374E-03 12256   0.902E-01    0.851E-02
DAV:   7    -0.315917369283E+02   -0.70106E-04   -0.13941E-03 12256   0.547E-01    0.127E-01
DAV:   8    -0.315916381296E+02    0.98799E-04   -0.66862E-04 11168   0.392E-01    0.441E-02
DAV:   9    -0.315916339946E+02    0.41350E-05   -0.60982E-05 11232   0.828E-02    0.140E-02
DAV:  10    -0.315916327478E+02    0.12468E-05   -0.10686E-05 11584   0.320E-02    0.523E-03
DAV:  11    -0.315916324745E+02    0.27329E-06   -0.13775E-06 10864   0.139E-02    0.877E-04
DAV:  12    -0.315916324095E+02    0.65002E-07   -0.71451E-08 11168   0.339E-03    0.443E-04
DAV:  13    -0.315916323806E+02    0.28891E-07   -0.82802E-09  5872   0.129E-03    0.105E-04
DAV:  14    -0.315916323746E+02    0.60463E-08   -0.22061E-09  5456   0.513E-04
  11 F= -.31591632E+02 E0= -.31591342E+02  d E =-.147982E+00  mag=     0.0000
 curvature:  -2.71 expect dE=-0.314E+00 dE for cont linesearch -0.974E-04
 trial: gam= 0.34284 g(F)=  0.936E-01 g(S)=  0.223E-01 ort =-0.545E-02 (trialstep = 0.603E+00)
 search vector abs. value=  0.209E+00
 bond charge predicted
       N       E                     dE             d eps       ncg     rms          rms(c)
DAV:   1    -0.308499460491E+02    0.74169E+00   -0.20852E+01 12640   0.162E+02    0.280E+00
DAV:   2    -0.317901050737E+02   -0.94016E+00   -0.93758E+00 10576   0.242E+01    0.377E+00
DAV:   3    -0.316661590892E+02    0.12395E+00   -0.86259E-01 11808   0.136E+01    0.167E+00
DAV:   4    -0.316574832485E+02    0.86758E-02   -0.19248E-01 11040   0.594E+00    0.943E-01
DAV:   5    -0.316528143376E+02    0.46689E-02   -0.16655E-02 12416   0.194E+00    0.504E-01
DAV:   6    -0.316531964817E+02   -0.38214E-03   -0.98370E-03 12928   0.159E+00    0.597E-01
DAV:   7    -0.316505337650E+02    0.26627E-02   -0.10515E-02 12320   0.182E+00    0.102E-01
DAV:   8    -0.316504933688E+02    0.40396E-04   -0.10679E-03 11824   0.315E-01    0.276E-02
DAV:   9    -0.316504832304E+02    0.10138E-04   -0.55666E-05 11088   0.843E-02    0.152E-02
DAV:  10    -0.316504829986E+02    0.23187E-06   -0.66658E-06 11184   0.274E-02    0.594E-03
DAV:  11    -0.316504825505E+02    0.44803E-06   -0.21864E-06 12048   0.174E-02    0.248E-03
DAV:  12    -0.316504825085E+02    0.42075E-07   -0.37492E-07 10848   0.109E-02    0.551E-04
DAV:  13    -0.316504824697E+02    0.38803E-07   -0.22984E-08  6912   0.223E-03    0.160E-04
DAV:  14    -0.316504824477E+02    0.21952E-07   -0.49790E-09  5504   0.776E-04    0.708E-05
DAV:  15    -0.316504824460E+02    0.16717E-08   -0.92712E-10  5264   0.310E-04
  12 F= -.31650482E+02 E0= -.31650374E+02  d E =-.588501E-01  mag=     0.0000
 trial-energy change:   -0.058850  1 .order   -0.058831   -0.068770   -0.048893
 step:   2.0860(harm=  2.0860)  dis= 0.10444  next Energy=   -31.710595 (dE=-0.119E+00)
 bond charge predicted
       N       E                     dE             d eps       ncg     rms          rms(c)
DAV:   1    -0.269487350381E+02    0.47017E+01   -0.13157E+02 12480   0.384E+02    0.736E+00
DAV:   2    -0.329379033391E+02   -0.59892E+01   -0.58641E+01 10640   0.649E+01    0.104E+01
DAV:   3    -0.317456110768E+02    0.11923E+01   -0.47533E+00 11232   0.373E+01    0.325E+00
DAV:   4    -0.317522830327E+02   -0.66720E-02   -0.12660E+00 11808   0.144E+01    0.256E+00
DAV:   5    -0.317156335489E+02    0.36649E-01   -0.13806E-01 11792   0.534E+00    0.116E+00
DAV:   6    -0.317051608070E+02    0.10473E-01   -0.37285E-02 13072   0.272E+00    0.584E-01
DAV:   7    -0.317042640956E+02    0.89671E-03   -0.23030E-02 11536   0.242E+00    0.404E-01
DAV:   8    -0.317030286703E+02    0.12354E-02   -0.55088E-03 13936   0.111E+00    0.799E-02
DAV:   9    -0.317030051813E+02    0.23489E-04   -0.74913E-04 12176   0.323E-01    0.491E-02
DAV:  10    -0.317029989670E+02    0.62143E-05   -0.11415E-04 10944   0.147E-01    0.104E-02
DAV:  11    -0.317029981436E+02    0.82339E-06   -0.10067E-05 11408   0.331E-02    0.516E-03
DAV:  12    -0.317029978445E+02    0.29906E-06   -0.18213E-06 11824   0.191E-02    0.227E-03
DAV:  13    -0.317029977115E+02    0.13297E-06   -0.41629E-07 11008   0.936E-03    0.116E-03
DAV:  14    -0.317029976458E+02    0.65733E-07   -0.58033E-08  8432   0.318E-03    0.191E-04
DAV:  15    -0.317029976496E+02   -0.37599E-08   -0.58800E-09  5456   0.952E-04
  13 F= -.31702998E+02 E0= -.31703228E+02  d E =-.111365E+00  mag=    -0.0000
 curvature:  -1.91 expect dE=-0.131E+00 dE for cont linesearch -0.182E-02
 ZBRENT: interpolating
 opt :   1.8661  next Energy=   -31.704550 (dE=-0.113E+00)
 bond charge predicted
       N       E                     dE             d eps       ncg     rms          rms(c)
DAV:   1    -0.315976664483E+02    0.10533E+00   -0.27922E+00 12992   0.595E+01    0.962E-01
DAV:   2    -0.317206035122E+02   -0.12294E+00   -0.12413E+00 10576   0.877E+00    0.135E+00
DAV:   3    -0.317077084141E+02    0.12895E-01   -0.12822E-01 11040   0.503E+00    0.697E-01
DAV:   4    -0.317051900664E+02    0.25183E-02   -0.25217E-02 11280   0.248E+00    0.294E-01
DAV:   5    -0.317048011070E+02    0.38896E-03   -0.15527E-03 11472   0.498E-01    0.202E-01
DAV:   6    -0.317048239039E+02   -0.22797E-04   -0.16573E-03 12064   0.649E-01    0.239E-01
DAV:   7    -0.317044213903E+02    0.40251E-03   -0.16960E-03 12944   0.730E-01    0.523E-02
DAV:   8    -0.317043987209E+02    0.22669E-04   -0.19252E-04 10944   0.138E-01    0.110E-02
DAV:   9    -0.317043976569E+02    0.10640E-05   -0.11374E-05 11392   0.355E-02    0.848E-03
DAV:  10    -0.317043976164E+02    0.40440E-07   -0.15664E-06 12152   0.200E-02    0.146E-03
DAV:  11    -0.317043976842E+02   -0.67781E-07   -0.16830E-07 11776   0.583E-03    0.402E-04
DAV:  12    -0.317043976946E+02   -0.10352E-07   -0.93372E-09  5888   0.150E-03    0.143E-04
DAV:  13    -0.317043977103E+02   -0.15678E-07   -0.36335E-09  5312   0.719E-04    0.558E-05
DAV:  14    -0.317043977128E+02   -0.25848E-08   -0.92171E-10  5088   0.323E-04
  14 F= -.31704398E+02 E0= -.31704637E+02  d E =-.112765E+00  mag=    -0.0000
 curvature:  -1.63 expect dE=-0.900E-01 dE for cont linesearch -0.181E-04
 trial: gam= 0.32253 g(F)=  0.228E-01 g(S)=  0.325E-01 ort = 0.153E-02 (trialstep = 0.856E+00)
 search vector abs. value=  0.780E-01
 bond charge predicted
       N       E                     dE             d eps       ncg     rms          rms(c)
DAV:   1    -0.323584101821E+02   -0.65401E+00   -0.15798E+01 10992   0.106E+02    0.104E+01
DAV:   2    -0.344726426294E+02   -0.21142E+01   -0.24841E+01 10912   0.534E+01    0.158E+01
DAV:   3    -0.318008426369E+02    0.26718E+01   -0.89539E+00 10688   0.350E+01    0.336E+00
DAV:   4    -0.317789079403E+02    0.21935E-01   -0.62186E-01 12848   0.108E+01    0.234E+00
DAV:   5    -0.317349999215E+02    0.43908E-01   -0.11266E-01 11072   0.467E+00    0.595E-01
DAV:   6    -0.317364192924E+02   -0.14194E-02   -0.38150E-02 13200   0.285E+00    0.821E-01
DAV:   7    -0.317318363876E+02    0.45829E-02   -0.19424E-02 11840   0.228E+00    0.102E-01
DAV:   8    -0.317317725160E+02    0.63872E-04   -0.16033E-03 10816   0.323E-01    0.838E-02
DAV:   9    -0.317317231805E+02    0.49336E-04   -0.21295E-04 12304   0.209E-01    0.192E-02
DAV:  10    -0.317317248534E+02   -0.16729E-05   -0.19968E-05 11680   0.527E-02    0.846E-03
DAV:  11    -0.317317249573E+02   -0.10391E-06   -0.36314E-06 11056   0.216E-02    0.142E-03
DAV:  12    -0.317317251292E+02   -0.17185E-06   -0.22000E-07 11088   0.534E-03    0.794E-04
DAV:  13    -0.317317251972E+02   -0.68076E-07   -0.20401E-08  6528   0.208E-03    0.126E-04
DAV:  14    -0.317317252050E+02   -0.78035E-08   -0.43968E-09  5632   0.669E-04
  15 F= -.31731725E+02 E0= -.31731651E+02  d E =-.273275E-01  mag=     0.0000
 trial-energy change:   -0.027327  1 .order   -0.027525   -0.047676   -0.007374
 step:   1.0178(harm=  1.0121)  dis= 0.01980  next Energy=   -31.732423 (dE=-0.280E-01)
 bond charge predicted
       N       E                     dE             d eps       ncg     rms          rms(c)
DAV:   1    -0.317560225819E+02   -0.24297E-01   -0.55543E-01 11168   0.203E+01    0.205E+00
DAV:   2    -0.318455923554E+02   -0.89570E-01   -0.89290E-01 10928   0.105E+01    0.320E+00
DAV:   3    -0.317350977374E+02    0.11049E+00   -0.38354E-01 10736   0.724E+00    0.680E-01
DAV:   4    -0.317338060845E+02    0.12917E-02   -0.24630E-02 12512   0.225E+00    0.397E-01
DAV:   5    -0.317325582539E+02    0.12478E-02   -0.31049E-03 11168   0.715E-01    0.123E-01
DAV:   6    -0.317328260218E+02   -0.26777E-03   -0.26816E-03 11872   0.790E-01    0.237E-01
DAV:   7    -0.317324369662E+02    0.38906E-03   -0.15991E-03 11872   0.663E-01    0.189E-02
DAV:   8    -0.317324367403E+02    0.22589E-06   -0.80102E-05 10768   0.666E-02    0.139E-02
DAV:   9    -0.317324357607E+02    0.97965E-06   -0.61080E-06 13264   0.352E-02    0.354E-03
DAV:  10    -0.317324360376E+02   -0.27690E-06   -0.60660E-07 11968   0.753E-03    0.104E-03
DAV:  11    -0.317324361649E+02   -0.12735E-06   -0.65518E-08 10080   0.271E-03    0.229E-04
DAV:  12    -0.317324362016E+02   -0.36631E-07   -0.47597E-09  5696   0.876E-04    0.147E-04
DAV:  13    -0.317324362163E+02   -0.14717E-07   -0.12830E-09  5376   0.474E-04    0.247E-05
DAV:  14    -0.317324362177E+02   -0.13915E-08   -0.31273E-10  5104   0.183E-04
  16 F= -.31732436E+02 E0= -.31732298E+02  d E =-.280385E-01  mag=     0.0000
 curvature:  -0.71 expect dE=-0.240E-01 dE for cont linesearch -0.189E-07
 trial: gam= 0.63002 g(F)=  0.141E-01 g(S)=  0.198E-01 ort = 0.457E-04 (trialstep = 0.888E+00)
 search vector abs. value=  0.649E-01
 bond charge predicted
       N       E                     dE             d eps       ncg     rms          rms(c)
DAV:   1    -0.314229075537E+02    0.30953E+00   -0.10686E+01 12816   0.104E+02    0.324E+00
DAV:   2    -0.319476108255E+02   -0.52470E+00   -0.54441E+00 10880   0.210E+01    0.413E+00
DAV:   3    -0.317701163798E+02    0.17749E+00   -0.80637E-01 10864   0.115E+01    0.137E+00
DAV:   4    -0.317735376152E+02   -0.34212E-02   -0.18692E-01 11424   0.605E+00    0.152E+00
DAV:   5    -0.317549743742E+02    0.18563E-01   -0.69107E-02 12128   0.430E+00    0.311E-01
DAV:   6    -0.317541608106E+02    0.81356E-03   -0.73207E-03 11664   0.672E-01    0.922E-02
DAV:   7    -0.317541962609E+02   -0.35450E-04   -0.91453E-04 13312   0.428E-01    0.986E-02
DAV:   8    -0.317541450039E+02    0.51257E-04   -0.40073E-04 11536   0.320E-01    0.385E-02
DAV:   9    -0.317541457183E+02   -0.71441E-06   -0.42192E-05 11904   0.775E-02    0.741E-03
DAV:  10    -0.317541454965E+02    0.22186E-06   -0.41408E-06 11504   0.179E-02    0.320E-03
DAV:  11    -0.317541452824E+02    0.21412E-06   -0.47119E-07 10880   0.888E-03    0.878E-04
DAV:  12    -0.317541452199E+02    0.62433E-07   -0.34781E-08  9680   0.190E-03    0.185E-04
DAV:  13    -0.317541452065E+02    0.13461E-07   -0.48735E-09  5744   0.930E-04    0.675E-05
DAV:  14    -0.317541452033E+02    0.31796E-08   -0.12302E-09  5440   0.356E-04
  17 F= -.31754145E+02 E0= -.31753752E+02  d E =-.217090E-01  mag=    -0.0000
 trial-energy change:   -0.021709  1 .order   -0.021733   -0.030157   -0.013309
 step:   1.5895(harm=  1.5895)  dis= 0.03248  next Energy=   -31.759426 (dE=-0.270E-01)
 bond charge predicted
       N       E                     dE             d eps       ncg     rms          rms(c)
DAV:   1    -0.315519420735E+02    0.20220E+00   -0.66544E+00 12928   0.824E+01    0.257E+00
DAV:   2    -0.318795797833E+02   -0.32764E+00   -0.34223E+00 10880   0.166E+01    0.325E+00
DAV:   3    -0.317696046734E+02    0.10998E+00   -0.51079E-01 10832   0.899E+00    0.107E+00
DAV:   4    -0.317713171632E+02   -0.17125E-02   -0.11067E-01 11456   0.474E+00    0.118E+00
DAV:   5    -0.317599701177E+02    0.11347E-01   -0.42124E-02 12224   0.350E+00    0.247E-01
DAV:   6    -0.317595873819E+02    0.38274E-03   -0.52292E-03 13536   0.705E-01    0.160E-01
DAV:   7    -0.317594767334E+02    0.11065E-03   -0.15498E-03 11408   0.618E-01    0.794E-02
DAV:   8    -0.317594422841E+02    0.34449E-04   -0.25177E-04 11152   0.219E-01    0.280E-02
DAV:   9    -0.317594433853E+02   -0.11013E-05   -0.27099E-05 12064   0.508E-02    0.516E-03
DAV:  10    -0.317594431430E+02    0.24227E-06   -0.19836E-06 12512   0.144E-02    0.231E-03
DAV:  11    -0.317594429521E+02    0.19093E-06   -0.22885E-07 11344   0.636E-03    0.600E-04
DAV:  12    -0.317594429024E+02    0.49720E-07   -0.21448E-08  7208   0.174E-03    0.141E-04
DAV:  13    -0.317594428903E+02    0.12131E-07   -0.45643E-09  5856   0.811E-04    0.745E-05
DAV:  14    -0.317594428893E+02    0.97680E-09   -0.11459E-09  5264   0.381E-04
  18 F= -.31759443E+02 E0= -.31759032E+02  d E =-.270067E-01  mag=     0.0000
 curvature:  -1.52 expect dE=-0.981E-02 dE for cont linesearch -0.190E-06
 trial: gam= 0.23105 g(F)=  0.422E-02 g(S)=  0.224E-02 ort = 0.900E-04 (trialstep = 0.103E+01)
 search vector abs. value=  0.997E-02
 bond charge predicted
       N       E                     dE             d eps       ncg     rms          rms(c)
DAV:   1    -0.316639655344E+02    0.95477E-01   -0.24912E+00 13008   0.571E+01    0.131E+00
DAV:   2    -0.317950346656E+02   -0.13107E+00   -0.13466E+00 10752   0.969E+00    0.169E+00
DAV:   3    -0.317679755273E+02    0.27059E-01   -0.16303E-01 10688   0.502E+00    0.679E-01
DAV:   4    -0.317663790385E+02    0.15965E-02   -0.21748E-02 11264   0.229E+00    0.441E-01
DAV:   5    -0.317650960359E+02    0.12830E-02   -0.31553E-03 12016   0.831E-01    0.250E-01
DAV:   6    -0.317651908803E+02   -0.94844E-04   -0.50676E-03 12000   0.106E+00    0.320E-01
DAV:   7    -0.317645009264E+02    0.68995E-03   -0.36316E-03 11648   0.942E-01    0.450E-02
DAV:   8    -0.317644909905E+02    0.99359E-05   -0.25164E-04 11072   0.146E-01    0.192E-02
DAV:   9    -0.317644892255E+02    0.17650E-05   -0.16290E-05 12192   0.470E-02    0.954E-03
DAV:  10    -0.317644890054E+02    0.22014E-06   -0.23234E-06 11984   0.158E-02    0.180E-03
DAV:  11    -0.317644891706E+02   -0.16524E-06   -0.19547E-07  9856   0.462E-03    0.561E-04
DAV:  12    -0.317644891997E+02   -0.29051E-07   -0.18550E-08  6672   0.180E-03    0.174E-04
DAV:  13    -0.317644892168E+02   -0.17160E-07   -0.49534E-09  5600   0.788E-04    0.457E-05
DAV:  14    -0.317644892161E+02    0.77307E-09   -0.95835E-10  5296   0.293E-04
  19 F= -.31764489E+02 E0= -.31764140E+02  d E =-.504633E-02  mag=     0.0000
 trial-energy change:   -0.005046  1 .order   -0.005050   -0.006661   -0.003439
 step:   2.1257(harm=  2.1257)  dis= 0.01749  next Energy=   -31.766328 (dE=-0.689E-02)
 bond charge predicted
       N       E                     dE             d eps       ncg     rms          rms(c)
DAV:   1    -0.316521602640E+02    0.11233E+00   -0.28428E+00 13008   0.609E+01    0.140E+00
DAV:   2    -0.318009665306E+02   -0.14881E+00   -0.15309E+00 10752   0.103E+01    0.180E+00
DAV:   3    -0.317700980038E+02    0.30869E-01   -0.18352E-01 10656   0.531E+00    0.704E-01
DAV:   4    -0.317684121358E+02    0.16859E-02   -0.23298E-02 11296   0.238E+00    0.469E-01
DAV:   5    -0.317669732375E+02    0.14389E-02   -0.36721E-03 12144   0.900E-01    0.265E-01
DAV:   6    -0.317670034947E+02   -0.30257E-04   -0.53897E-03 11984   0.110E+00    0.323E-01
DAV:   7    -0.317663026129E+02    0.70088E-03   -0.37856E-03 11600   0.101E+00    0.474E-02
DAV:   8    -0.317662914241E+02    0.11189E-04   -0.27201E-04 11152   0.155E-01    0.202E-02
DAV:   9    -0.317662894893E+02    0.19348E-05   -0.17959E-05 12096   0.497E-02    0.986E-03
DAV:  10    -0.317662892698E+02    0.21952E-06   -0.25420E-06 12048   0.164E-02    0.179E-03
DAV:  11    -0.317662894445E+02   -0.17476E-06   -0.20091E-07  9856   0.465E-03    0.549E-04
DAV:  12    -0.317662894744E+02   -0.29828E-07   -0.18620E-08  7056   0.179E-03    0.174E-04
DAV:  13    -0.317662894917E+02   -0.17337E-07   -0.48169E-09  5584   0.784E-04    0.440E-05
DAV:  14    -0.317662894911E+02    0.61664E-09   -0.95155E-10  5184   0.293E-04
  20 F= -.31766289E+02 E0= -.31766009E+02  d E =-.684660E-02  mag=     0.0000
 curvature:  -1.64 expect dE=-0.425E-02 dE for cont linesearch -0.735E-06
 trial: gam= 0.41685 g(F)=  0.126E-02 g(S)=  0.134E-02 ort =-0.669E-04 (trialstep = 0.125E+01)
 search vector abs. value=  0.428E-02
 bond charge predicted
       N       E                     dE             d eps       ncg     rms          rms(c)
DAV:   1    -0.317618944057E+02    0.43951E-02   -0.20969E+00 11520   0.475E+01    0.304E+00
DAV:   2    -0.319979215689E+02   -0.23603E+00   -0.22890E+00 10944   0.161E+01    0.442E+00
DAV:   3    -0.317730038611E+02    0.22492E+00   -0.80771E-01 10768   0.116E+01    0.101E+00
DAV:   4    -0.317707657266E+02    0.22381E-02   -0.67043E-02 12480   0.336E+00    0.597E-01
DAV:   5    -0.317684929551E+02    0.22728E-02   -0.50631E-03 12048   0.984E-01    0.323E-01
DAV:   6    -0.317678516334E+02    0.64132E-03   -0.43017E-03 11616   0.896E-01    0.228E-01
DAV:   7    -0.317675259641E+02    0.32567E-03   -0.21474E-03 11392   0.854E-01    0.538E-02
DAV:   8    -0.317674954586E+02    0.30506E-04   -0.24187E-04 11008   0.178E-01    0.191E-02
DAV:   9    -0.317674924184E+02    0.30402E-05   -0.15243E-05 12352   0.450E-02    0.503E-03
DAV:  10    -0.317674921306E+02    0.28782E-06   -0.13794E-06 11792   0.127E-02    0.133E-03
DAV:  11    -0.317674920020E+02    0.12851E-06   -0.12249E-07 11808   0.364E-03    0.326E-04
DAV:  12    -0.317674919476E+02    0.54399E-07   -0.80854E-09  6128   0.109E-03    0.201E-04
DAV:  13    -0.317674919289E+02    0.18730E-07   -0.19419E-09  5568   0.536E-04    0.795E-05
DAV:  14    -0.317674919244E+02    0.45584E-08   -0.64678E-10  5216   0.282E-04
  21 F= -.31767492E+02 E0= -.31767222E+02  d E =-.120243E-02  mag=    -0.0000
 trial-energy change:   -0.001202  1 .order   -0.001190   -0.003208    0.000829
 step:   0.9954(harm=  0.9915)  dis= 0.00448  next Energy=   -31.767576 (dE=-0.129E-02)
 bond charge predicted
       N       E                     dE             d eps       ncg     rms          rms(c)
DAV:   1    -0.317672056243E+02    0.28630E-03   -0.86473E-02 11488   0.957E+00    0.596E-01
DAV:   2    -0.317761305769E+02   -0.89250E-02   -0.92289E-02 11024   0.318E+00    0.872E-01
DAV:   3    -0.317678801301E+02    0.82504E-02   -0.31969E-02 10784   0.216E+00    0.222E-01
DAV:   4    -0.317677162975E+02    0.16383E-03   -0.24980E-03 12880   0.690E-01    0.128E-01
DAV:   5    -0.317676124399E+02    0.10386E-03   -0.21538E-04 11200   0.199E-01    0.675E-02
DAV:   6    -0.317676104021E+02    0.20378E-05   -0.27056E-04 12208   0.246E-01    0.722E-02
DAV:   7    -0.317675749847E+02    0.35417E-04   -0.17881E-04 11760   0.214E-01    0.925E-03
DAV:   8    -0.317675746821E+02    0.30258E-06   -0.12496E-05 10912   0.324E-02    0.387E-03
DAV:   9    -0.317675745832E+02    0.98931E-07   -0.56366E-07 13008   0.969E-03    0.133E-03
DAV:  10    -0.317675746296E+02   -0.46439E-07   -0.62133E-08 10144   0.271E-03    0.268E-04
DAV:  11    -0.317675746642E+02   -0.34624E-07   -0.73667E-09  5760   0.862E-04    0.129E-04
DAV:  12    -0.317675746759E+02   -0.11642E-07   -0.14664E-09  5168   0.470E-04    0.417E-05
DAV:  13    -0.317675746803E+02   -0.43747E-08   -0.30409E-10  4960   0.214E-04
  22 F= -.31767575E+02 E0= -.31767303E+02  d E =-.128519E-02  mag=     0.0000
 curvature:  -0.82 expect dE=-0.113E-02 dE for cont linesearch -0.671E-08
 trial: gam= 0.51337 g(F)=  0.786E-03 g(S)=  0.590E-03 ort =-0.590E-05 (trialstep = 0.120E+01)
 search vector abs. value=  0.250E-02
 bond charge predicted
       N       E                     dE             d eps       ncg     rms          rms(c)
DAV:   1    -0.317173324260E+02    0.50242E-01   -0.12969E+00 13584   0.401E+01    0.889E-01
DAV:   2    -0.317827013617E+02   -0.65369E-01   -0.66615E-01 10816   0.651E+00    0.115E+00
DAV:   3    -0.317699751612E+02    0.12726E-01   -0.77386E-02 11024   0.357E+00    0.437E-01
DAV:   4    -0.317693574470E+02    0.61771E-03   -0.97133E-03 10944   0.151E+00    0.281E-01
DAV:   5    -0.317689590760E+02    0.39837E-03   -0.89227E-04 12080   0.417E-01    0.187E-01
DAV:   6    -0.317688352275E+02    0.12385E-03   -0.14958E-03 11440   0.601E-01    0.174E-01
DAV:   7    -0.317686408093E+02    0.19442E-03   -0.11077E-03 12784   0.514E-01    0.365E-02
DAV:   8    -0.317686333717E+02    0.74377E-05   -0.91446E-05 12432   0.960E-02    0.104E-02
DAV:   9    -0.317686330376E+02    0.33406E-06   -0.66558E-06 11264   0.252E-02    0.537E-03
DAV:  10    -0.317686330314E+02    0.62137E-08   -0.78456E-07 12560   0.924E-03    0.104E-03
DAV:  11    -0.317686331108E+02   -0.79395E-07   -0.56846E-08  9920   0.261E-03    0.249E-04
DAV:  12    -0.317686331280E+02   -0.17171E-07   -0.47013E-09  5856   0.984E-04    0.826E-05
DAV:  13    -0.317686331388E+02   -0.10799E-07   -0.14143E-09  5312   0.420E-04    0.257E-05
DAV:  14    -0.317686331391E+02   -0.31287E-09   -0.28984E-10  5136   0.180E-04
  23 F= -.31768633E+02 E0= -.31768354E+02  d E =-.105846E-02  mag=    -0.0000
 trial-energy change:   -0.001058  1 .order   -0.001063   -0.001645   -0.000482
 step:   1.7103(harm=  1.6930)  dis= 0.00595  next Energy=   -31.768736 (dE=-0.116E-02)
 bond charge predicted
       N       E                     dE             d eps       ncg     rms          rms(c)
DAV:   1    -0.317595143842E+02    0.91188E-02   -0.23902E-01 13920   0.172E+01    0.387E-01
DAV:   2    -0.317714646267E+02   -0.11950E-01   -0.12154E-01 10816   0.279E+00    0.502E-01
DAV:   3    -0.317689422591E+02    0.25224E-02   -0.14163E-02 11216   0.148E+00    0.169E-01
DAV:   4    -0.317688569837E+02    0.85275E-04   -0.13873E-03 11648   0.540E-01    0.117E-01
DAV:   5    -0.317687874831E+02    0.69501E-04   -0.16571E-04 11696   0.185E-01    0.772E-02
DAV:   6    -0.317687732777E+02    0.14205E-04   -0.26911E-04 11680   0.258E-01    0.767E-02
DAV:   7    -0.317687347394E+02    0.38538E-04   -0.20867E-04 12880   0.225E-01    0.146E-02
DAV:   8    -0.317687341423E+02    0.59708E-06   -0.16841E-05 12256   0.396E-02    0.429E-03
DAV:   9    -0.317687341271E+02    0.15196E-07   -0.11504E-06 11648   0.110E-02    0.220E-03
DAV:  10    -0.317687341540E+02   -0.26908E-07   -0.13377E-07 10512   0.392E-03    0.461E-04
DAV:  11    -0.317687341895E+02   -0.35479E-07   -0.10436E-08  6128   0.105E-03    0.131E-04
DAV:  12    -0.317687341954E+02   -0.58772E-08   -0.22744E-09  5216   0.663E-04
  24 F= -.31768734E+02 E0= -.31768451E+02  d E =-.115952E-02  mag=     0.0000
 curvature:  -1.54 expect dE=-0.762E-03 dE for cont linesearch -0.126E-07
 trial: gam= 0.36961 g(F)=  0.314E-03 g(S)=  0.182E-03 ort =-0.453E-05 (trialstep = 0.130E+01)
 search vector abs. value=  0.833E-03
 bond charge predicted
       N       E                     dE             d eps       ncg     rms          rms(c)
DAV:   1    -0.317580693407E+02    0.10665E-01   -0.32648E-01 14768   0.202E+01    0.504E-01
DAV:   2    -0.317742049527E+02   -0.16136E-01   -0.16611E-01 10816   0.349E+00    0.677E-01
DAV:   3    -0.317696186096E+02    0.45863E-02   -0.22687E-02 11504   0.193E+00    0.226E-01
DAV:   4    -0.317695193374E+02    0.99272E-04   -0.36773E-03 11456   0.890E-01    0.182E-01
DAV:   5    -0.317692471967E+02    0.27214E-03   -0.81688E-04 11856   0.448E-01    0.639E-02
DAV:   6    -0.317692484119E+02   -0.12151E-05   -0.40594E-04 14784   0.289E-01    0.819E-02
DAV:   7    -0.317692023399E+02    0.46072E-04   -0.23557E-04 11776   0.239E-01    0.125E-02
DAV:   8    -0.317692014587E+02    0.88122E-06   -0.17443E-05 11088   0.395E-02    0.634E-03
DAV:   9    -0.317692012214E+02    0.23732E-06   -0.99429E-07 12288   0.113E-02    0.245E-03
DAV:  10    -0.317692011200E+02    0.10138E-06   -0.19221E-07 12400   0.452E-03    0.573E-04
DAV:  11    -0.317692010816E+02    0.38359E-07   -0.17037E-08  6080   0.176E-03    0.136E-04
DAV:  12    -0.317692010777E+02    0.38781E-08   -0.28716E-09  5312   0.601E-04
  25 F= -.31769201E+02 E0= -.31768900E+02  d E =-.466882E-03  mag=     0.0000
 trial-energy change:   -0.000467  1 .order   -0.000466   -0.000642   -0.000291
 step:   2.3764(harm=  2.3764)  dis= 0.00564  next Energy=   -31.769321 (dE=-0.587E-03)
 bond charge predicted
       N       E                     dE             d eps       ncg     rms          rms(c)
DAV:   1    -0.317616251687E+02    0.75759E-02   -0.22334E-01 14672   0.167E+01    0.416E-01
DAV:   2    -0.317726998990E+02   -0.11075E-01   -0.11395E-01 10784   0.288E+00    0.557E-01
DAV:   3    -0.317696174524E+02    0.30824E-02   -0.15526E-02 11280   0.159E+00    0.191E-01
DAV:   4    -0.317695399474E+02    0.77505E-04   -0.25854E-03 11664   0.746E-01    0.150E-01
DAV:   5    -0.317693538737E+02    0.18607E-03   -0.54287E-04 11808   0.363E-01    0.532E-02
DAV:   6    -0.317693524089E+02    0.14649E-05   -0.27091E-04 14816   0.237E-01    0.664E-02
DAV:   7    -0.317693222407E+02    0.30168E-04   -0.15509E-04 11792   0.194E-01    0.102E-02
DAV:   8    -0.317693216155E+02    0.62516E-06   -0.11795E-05 11056   0.326E-02    0.534E-03
DAV:   9    -0.317693214252E+02    0.19032E-06   -0.68074E-07 12144   0.956E-03    0.198E-03
DAV:  10    -0.317693213459E+02    0.79297E-07   -0.12809E-07 11360   0.365E-03    0.479E-04
DAV:  11    -0.317693213134E+02    0.32498E-07   -0.12102E-08  5824   0.148E-03    0.106E-04
DAV:  12    -0.317693213104E+02    0.30705E-08   -0.20725E-09  5280   0.515E-04
  26 F= -.31769321E+02 E0= -.31769007E+02  d E =-.587115E-03  mag=     0.0000
 curvature:  -2.00 expect dE=-0.443E-03 dE for cont linesearch -0.458E-09
 trial: gam= 0.45328 g(F)=  0.954E-04 g(S)=  0.126E-03 ort =-0.437E-06 (trialstep = 0.152E+01)
 search vector abs. value=  0.392E-03
 bond charge predicted
       N       E                     dE             d eps       ncg     rms          rms(c)
DAV:   1    -0.317792022558E+02   -0.98809E-02   -0.16459E-01 10928   0.102E+01    0.120E+00
DAV:   2    -0.318087903017E+02   -0.29588E-01   -0.29674E-01 10944   0.616E+00    0.192E+00
DAV:   3    -0.317713549108E+02    0.37435E-01   -0.14960E-01 10832   0.466E+00    0.584E-01
DAV:   4    -0.317697204092E+02    0.16345E-02   -0.17038E-02 11104   0.202E+00    0.213E-01
DAV:   5    -0.317693996016E+02    0.32081E-03   -0.98895E-04 11040   0.364E-01    0.867E-02
DAV:   6    -0.317694579475E+02   -0.58346E-04   -0.87119E-04 12048   0.465E-01    0.130E-01
DAV:   7    -0.317693378305E+02    0.12012E-03   -0.53408E-04 11872   0.365E-01    0.115E-02
DAV:   8    -0.317693378052E+02    0.25257E-07   -0.24427E-05 10816   0.427E-02    0.404E-03
DAV:   9    -0.317693377788E+02    0.26361E-07   -0.82768E-07 13664   0.995E-03    0.191E-03
DAV:  10    -0.317693378780E+02   -0.99175E-07   -0.12662E-07 11536   0.359E-03    0.443E-04
DAV:  11    -0.317693379382E+02   -0.60161E-07   -0.13424E-08  6576   0.122E-03    0.225E-04
DAV:  12    -0.317693379625E+02   -0.24316E-07   -0.30460E-09  5456   0.627E-04    0.545E-05
DAV:  13    -0.317693379678E+02   -0.53224E-08   -0.63115E-10  5072   0.297E-04
  27 F= -.31769338E+02 E0= -.31769019E+02  d E =-.166575E-04  mag=     0.0000
 trial-energy change:   -0.000017  1 .order   -0.000024   -0.000335    0.000287
 step:   0.7893(harm=  0.8160)  dis= 0.00108  next Energy=   -31.769407 (dE=-0.862E-04)
 bond charge predicted
       N       E                     dE             d eps       ncg     rms          rms(c)
DAV:   1    -0.317716935901E+02   -0.23556E-02   -0.37705E-02 10928   0.492E+00    0.583E-01
DAV:   2    -0.317786940803E+02   -0.70005E-02   -0.68717E-02 10944   0.299E+00    0.910E-01
DAV:   3    -0.317697330755E+02    0.89610E-02   -0.33242E-02 10832   0.227E+00    0.244E-01
DAV:   4    -0.317694927737E+02    0.24030E-03   -0.34375E-03 11120   0.796E-01    0.966E-02
DAV:   5    -0.317694208816E+02    0.71892E-04   -0.19769E-04 11120   0.170E-01    0.362E-02
DAV:   6    -0.317694172088E+02    0.36728E-05   -0.79607E-05 12288   0.129E-01    0.364E-02
DAV:   7    -0.317694081808E+02    0.90280E-05   -0.49603E-05 11632   0.113E-01    0.549E-03
DAV:   8    -0.317694077761E+02    0.40477E-06   -0.34168E-06 10736   0.193E-02    0.243E-03
DAV:   9    -0.317694076647E+02    0.11139E-06   -0.21209E-07 12816   0.483E-03    0.550E-04
DAV:  10    -0.317694076137E+02    0.51012E-07   -0.21575E-08  7744   0.171E-03    0.131E-04
DAV:  11    -0.317694075953E+02    0.18381E-07   -0.24252E-09  5456   0.462E-04    0.572E-05
DAV:  12    -0.317694075863E+02    0.89422E-08   -0.53968E-10  5072   0.261E-04
  28 F= -.31769408E+02 E0= -.31769091E+02  d E =-.862760E-04  mag=     0.0000
 curvature:  -0.72 expect dE=-0.369E-04 dE for cont linesearch -0.869E-07
 trial: gam= 0.20189 g(F)=  0.290E-04 g(S)=  0.220E-04 ort = 0.686E-05 (trialstep = 0.137E+01)
 search vector abs. value=  0.697E-04
 bond charge predicted
       N       E                     dE             d eps       ncg     rms          rms(c)
DAV:   1    -0.317693986895E+02    0.89058E-05   -0.14939E-02 11072   0.374E+00    0.243E-01
DAV:   2    -0.317708783560E+02   -0.14797E-02   -0.15139E-02 11104   0.130E+00    0.352E-01
DAV:   3    -0.317694777424E+02    0.14006E-02   -0.49391E-03 10752   0.843E-01    0.682E-02
DAV:   4    -0.317694762954E+02    0.14470E-05   -0.34415E-04 13776   0.253E-01    0.639E-02
DAV:   5    -0.317694432504E+02    0.33045E-04   -0.12071E-04 12176   0.159E-01    0.194E-02
DAV:   6    -0.317694468967E+02   -0.36464E-05   -0.55423E-05 12992   0.109E-01    0.330E-02
DAV:   7    -0.317694390271E+02    0.78697E-05   -0.37815E-05 11808   0.989E-02    0.400E-03
DAV:   8    -0.317694388556E+02    0.17144E-06   -0.21836E-06 11760   0.120E-02    0.183E-03
DAV:   9    -0.317694388013E+02    0.54364E-07   -0.13498E-07 11248   0.440E-03    0.732E-04
DAV:  10    -0.317694387482E+02    0.53042E-07   -0.13421E-08  6224   0.147E-03    0.128E-04
DAV:  11    -0.317694387340E+02    0.14259E-07   -0.26279E-09  5120   0.615E-04    0.629E-05
DAV:  12    -0.317694387287E+02    0.53042E-08   -0.58925E-10  4976   0.255E-04
  29 F= -.31769439E+02 E0= -.31769121E+02  d E =-.311423E-04  mag=    -0.0000
 trial-energy change:   -0.000031  1 .order   -0.000031   -0.000072    0.000009
 step:   1.2138(harm=  1.2156)  dis= 0.00084  next Energy=   -31.769439 (dE=-0.317E-04)
 bond charge predicted
       N       E                     dE             d eps       ncg     rms          rms(c)
DAV:   1    -0.317694388707E+02   -0.13676E-06   -0.19426E-04 11088   0.427E-01    0.277E-02
DAV:   2    -0.317694569802E+02   -0.18109E-04   -0.19655E-04 11104   0.148E-01    0.402E-02
DAV:   3    -0.317694394931E+02    0.17487E-04   -0.64044E-05 10752   0.960E-02    0.790E-03
DAV:   4    -0.317694395067E+02   -0.13630E-07   -0.45221E-06 13744   0.291E-02    0.728E-03
DAV:   5    -0.317694391640E+02    0.34272E-06   -0.15505E-06 12128   0.179E-02    0.222E-03
DAV:   6    -0.317694392897E+02   -0.12570E-06   -0.74861E-07 12848   0.128E-02    0.386E-03
DAV:   7    -0.317694392017E+02    0.88010E-07   -0.51003E-07 11808   0.114E-02    0.448E-04
DAV:   8    -0.317694392199E+02   -0.18203E-07   -0.27469E-08  7088   0.135E-03    0.207E-04
DAV:   9    -0.317694392246E+02   -0.47185E-08   -0.23931E-09  4848   0.597E-04
  30 F= -.31769439E+02 E0= -.31769122E+02  d E =-.316383E-04  mag=    -0.0000
 curvature:  -0.81 expect dE=-0.324E-05 dE for cont linesearch -0.580E-09
 trial: gam= 0.10704 g(F)=  0.246E-05 g(S)=  0.155E-05 ort = 0.224E-06 (trialstep = 0.134E+01)
 search vector abs. value=  0.486E-05
 reached required accuracy - stopping structural energy minimisation
 writing wavefunctions
