   7   7   0   0
  0.1377330E+02  0.1004732E-08  0.1004732E-08  0.1004732E-08  0.5000000E-15
  1.000000000000000E-004
  CAR 
 unknown system                          
     21.90896032    -58.56322112  301      8.73267349      1.00000000
    -58.563  0.0000E+00  0.0000E+00  0.0000E+00  0.0000E+00
    -58.295  0.0000E+00  0.0000E+00  0.0000E+00  0.0000E+00
    -58.027  0.0000E+00  0.0000E+00  0.0000E+00  0.0000E+00
    -57.758  0.0000E+00  0.0000E+00  0.0000E+00  0.0000E+00
    -57.490  0.0000E+00  0.0000E+00  0.0000E+00  0.0000E+00
    -57.222  0.0000E+00  0.0000E+00  0.0000E+00  0.0000E+00
    -56.954  0.0000E+00  0.0000E+00  0.0000E+00  0.0000E+00
    -56.686  0.0000E+00  0.0000E+00  0.0000E+00  0.0000E+00
    -56.417  0.0000E+00  0.0000E+00  0.0000E+00  0.0000E+00
    -56.149  0.0000E+00  0.0000E+00  0.0000E+00  0.0000E+00
    -55.881  0.0000E+00  0.0000E+00  0.0000E+00  0.0000E+00
    -55.613  0.0000E+00  0.0000E+00  0.0000E+00  0.0000E+00
    -55.344  0.0000E+00  0.0000E+00  0.0000E+00  0.0000E+00
    -55.076  0.0000E+00  0.0000E+00  0.0000E+00  0.0000E+00
    -54.808  0.0000E+00  0.0000E+00  0.6000E+01  0.6000E+01
    -54.540  0.0000E+00  0.0000E+00  0.6000E+01  0.6000E+01
    -54.271  0.0000E+00  0.0000E+00  0.6000E+01  0.6000E+01
    -54.003  0.0000E+00  0.0000E+00  0.6000E+01  0.6000E+01
    -53.735  0.0000E+00  0.0000E+00  0.6000E+01  0.6000E+01
    -53.467  0.0000E+00  0.0000E+00  0.6000E+01  0.6000E+01
    -53.198  0.0000E+00  0.0000E+00  0.6000E+01  0.6000E+01
    -52.930  0.0000E+00  0.0000E+00  0.6000E+01  0.6000E+01
    -52.662  0.0000E+00  0.0000E+00  0.6000E+01  0.6000E+01
    -52.394  0.0000E+00  0.0000E+00  0.6000E+01  0.6000E+01
    -52.125  0.0000E+00  0.0000E+00  0.6000E+01  0.6000E+01
    -51.857  0.0000E+00  0.0000E+00  0.6000E+01  0.6000E+01
    -51.589  0.0000E+00  0.0000E+00  0.6000E+01  0.6000E+01
    -51.321  0.0000E+00  0.0000E+00  0.6000E+01  0.6000E+01
    -51.052  0.0000E+00  0.0000E+00  0.6000E+01  0.6000E+01
    -50.784  0.0000E+00  0.0000E+00  0.6000E+01  0.6000E+01
    -50.516  0.0000E+00  0.0000E+00  0.6000E+01  0.6000E+01
    -50.248  0.0000E+00  0.0000E+00  0.6000E+01  0.6000E+01
    -49.980  0.0000E+00  0.0000E+00  0.6000E+01  0.6000E+01
    -49.711  0.0000E+00  0.0000E+00  0.6000E+01  0.6000E+01
    -49.443  0.0000E+00  0.0000E+00  0.6000E+01  0.6000E+01
    -49.175  0.0000E+00  0.0000E+00  0.6000E+01  0.6000E+01
    -48.907  0.0000E+00  0.0000E+00  0.6000E+01  0.6000E+01
    -48.638  0.0000E+00  0.0000E+00  0.6000E+01  0.6000E+01
    -48.370  0.0000E+00  0.0000E+00  0.6000E+01  0.6000E+01
    -48.102  0.0000E+00  0.0000E+00  0.6000E+01  0.6000E+01
    -47.834  0.0000E+00  0.0000E+00  0.6000E+01  0.6000E+01
    -47.565  0.0000E+00  0.0000E+00  0.6000E+01  0.6000E+01
    -47.297  0.0000E+00  0.0000E+00  0.6000E+01  0.6000E+01
    -47.029  0.0000E+00  0.0000E+00  0.6000E+01  0.6000E+01
    -46.761  0.0000E+00  0.0000E+00  0.6000E+01  0.6000E+01
    -46.492  0.0000E+00  0.0000E+00  0.6000E+01  0.6000E+01
    -46.224  0.0000E+00  0.0000E+00  0.6000E+01  0.6000E+01
    -45.956  0.0000E+00  0.0000E+00  0.6000E+01  0.6000E+01
    -45.688  0.0000E+00  0.0000E+00  0.6000E+01  0.6000E+01
    -45.419  0.0000E+00  0.0000E+00  0.6000E+01  0.6000E+01
    -45.151  0.0000E+00  0.0000E+00  0.6000E+01  0.6000E+01
    -44.883  0.0000E+00  0.0000E+00  0.6000E+01  0.6000E+01
    -44.615  0.0000E+00  0.0000E+00  0.6000E+01  0.6000E+01
    -44.346  0.0000E+00  0.0000E+00  0.6000E+01  0.6000E+01
    -44.078  0.0000E+00  0.0000E+00  0.6000E+01  0.6000E+01
    -43.810  0.0000E+00  0.0000E+00  0.6000E+01  0.6000E+01
    -43.542  0.0000E+00  0.0000E+00  0.6000E+01  0.6000E+01
    -43.274  0.0000E+00  0.0000E+00  0.6000E+01  0.6000E+01
    -43.005  0.0000E+00  0.0000E+00  0.6000E+01  0.6000E+01
    -42.737  0.0000E+00  0.0000E+00  0.6000E+01  0.6000E+01
    -42.469  0.0000E+00  0.0000E+00  0.6000E+01  0.6000E+01
    -42.201  0.0000E+00  0.0000E+00  0.6000E+01  0.6000E+01
    -41.932  0.0000E+00  0.0000E+00  0.6000E+01  0.6000E+01
    -41.664  0.0000E+00  0.0000E+00  0.6000E+01  0.6000E+01
    -41.396  0.0000E+00  0.0000E+00  0.6000E+01  0.6000E+01
    -41.128  0.0000E+00  0.0000E+00  0.6000E+01  0.6000E+01
    -40.859  0.0000E+00  0.0000E+00  0.6000E+01  0.6000E+01
    -40.591  0.0000E+00  0.0000E+00  0.6000E+01  0.6000E+01
    -40.323  0.0000E+00  0.0000E+00  0.6000E+01  0.6000E+01
    -40.055  0.0000E+00  0.0000E+00  0.6000E+01  0.6000E+01
    -39.786  0.0000E+00  0.0000E+00  0.6000E+01  0.6000E+01
    -39.518  0.0000E+00  0.0000E+00  0.6000E+01  0.6000E+01
    -39.250  0.0000E+00  0.0000E+00  0.6000E+01  0.6000E+01
    -38.982  0.0000E+00  0.0000E+00  0.6000E+01  0.6000E+01
    -38.713  0.0000E+00  0.0000E+00  0.6000E+01  0.6000E+01
    -38.445  0.0000E+00  0.0000E+00  0.6000E+01  0.6000E+01
    -38.177  0.0000E+00  0.0000E+00  0.6000E+01  0.6000E+01
    -37.909  0.0000E+00  0.0000E+00  0.6000E+01  0.6000E+01
    -37.640  0.0000E+00  0.0000E+00  0.6000E+01  0.6000E+01
    -37.372  0.0000E+00  0.0000E+00  0.6000E+01  0.6000E+01
    -37.104  0.0000E+00  0.0000E+00  0.6000E+01  0.6000E+01
    -36.836  0.0000E+00  0.0000E+00  0.6000E+01  0.6000E+01
    -36.567  0.0000E+00  0.0000E+00  0.6000E+01  0.6000E+01
    -36.299  0.0000E+00  0.0000E+00  0.6000E+01  0.6000E+01
    -36.031  0.0000E+00  0.0000E+00  0.6000E+01  0.6000E+01
    -35.763  0.0000E+00  0.0000E+00  0.6000E+01  0.6000E+01
    -35.495  0.0000E+00  0.0000E+00  0.6000E+01  0.6000E+01
    -35.226  0.0000E+00  0.0000E+00  0.6000E+01  0.6000E+01
    -34.958  0.0000E+00  0.0000E+00  0.6000E+01  0.6000E+01
    -34.690  0.0000E+00  0.0000E+00  0.6000E+01  0.6000E+01
    -34.422  0.0000E+00  0.0000E+00  0.6000E+01  0.6000E+01
    -34.153  0.0000E+00  0.0000E+00  0.6000E+01  0.6000E+01
    -33.885  0.0000E+00  0.0000E+00  0.6000E+01  0.6000E+01
    -33.617  0.0000E+00  0.0000E+00  0.6000E+01  0.6000E+01
    -33.349  0.0000E+00  0.0000E+00  0.6000E+01  0.6000E+01
    -33.080  0.0000E+00  0.0000E+00  0.6000E+01  0.6000E+01
    -32.812  0.0000E+00  0.0000E+00  0.6000E+01  0.6000E+01
    -32.544  0.0000E+00  0.0000E+00  0.6000E+01  0.6000E+01
    -32.276  0.0000E+00  0.0000E+00  0.6000E+01  0.6000E+01
    -32.007  0.0000E+00  0.0000E+00  0.6000E+01  0.6000E+01
    -31.739  0.0000E+00  0.0000E+00  0.6000E+01  0.6000E+01
    -31.471  0.0000E+00  0.0000E+00  0.6000E+01  0.6000E+01
    -31.203  0.0000E+00  0.0000E+00  0.6000E+01  0.6000E+01
    -30.934  0.0000E+00  0.0000E+00  0.6000E+01  0.6000E+01
    -30.666  0.0000E+00  0.0000E+00  0.6000E+01  0.6000E+01
    -30.398  0.0000E+00  0.0000E+00  0.6000E+01  0.6000E+01
    -30.130  0.0000E+00  0.0000E+00  0.6000E+01  0.6000E+01
    -29.861  0.0000E+00  0.0000E+00  0.6000E+01  0.6000E+01
    -29.593  0.0000E+00  0.0000E+00  0.6000E+01  0.6000E+01
    -29.325  0.0000E+00  0.0000E+00  0.6000E+01  0.6000E+01
    -29.057  0.0000E+00  0.0000E+00  0.6000E+01  0.6000E+01
    -28.789  0.0000E+00  0.0000E+00  0.6000E+01  0.6000E+01
    -28.520  0.0000E+00  0.0000E+00  0.6000E+01  0.6000E+01
    -28.252  0.0000E+00  0.0000E+00  0.6000E+01  0.6000E+01
    -27.984  0.0000E+00  0.0000E+00  0.6000E+01  0.6000E+01
    -27.716  0.0000E+00  0.0000E+00  0.6000E+01  0.6000E+01
    -27.447  0.0000E+00  0.0000E+00  0.6000E+01  0.6000E+01
    -27.179  0.0000E+00  0.0000E+00  0.6000E+01  0.6000E+01
    -26.911  0.0000E+00  0.0000E+00  0.6000E+01  0.6000E+01
    -26.643  0.0000E+00  0.0000E+00  0.6000E+01  0.6000E+01
    -26.374  0.0000E+00  0.0000E+00  0.6000E+01  0.6000E+01
    -26.106  0.0000E+00  0.0000E+00  0.6000E+01  0.6000E+01
    -25.838  0.0000E+00  0.0000E+00  0.6000E+01  0.6000E+01
    -25.570  0.0000E+00  0.0000E+00  0.6000E+01  0.6000E+01
    -25.301  0.0000E+00  0.0000E+00  0.6000E+01  0.6000E+01
    -25.033  0.0000E+00  0.0000E+00  0.6000E+01  0.6000E+01
    -24.765  0.0000E+00  0.0000E+00  0.6000E+01  0.6000E+01
    -24.497  0.0000E+00  0.0000E+00  0.6000E+01  0.6000E+01
    -24.228  0.0000E+00  0.0000E+00  0.6000E+01  0.6000E+01
    -23.960  0.0000E+00  0.0000E+00  0.6000E+01  0.6000E+01
    -23.692  0.0000E+00  0.0000E+00  0.6000E+01  0.6000E+01
    -23.424  0.0000E+00  0.0000E+00  0.6000E+01  0.6000E+01
    -23.155  0.0000E+00  0.0000E+00  0.6000E+01  0.6000E+01
    -22.887  0.0000E+00  0.0000E+00  0.6000E+01  0.6000E+01
    -22.619  0.0000E+00  0.0000E+00  0.6000E+01  0.6000E+01
    -22.351  0.0000E+00  0.0000E+00  0.6000E+01  0.6000E+01
    -22.082  0.0000E+00  0.0000E+00  0.6000E+01  0.6000E+01
    -21.814  0.0000E+00  0.0000E+00  0.6000E+01  0.6000E+01
    -21.546  0.0000E+00  0.0000E+00  0.6000E+01  0.6000E+01
    -21.278  0.0000E+00  0.0000E+00  0.6000E+01  0.6000E+01
    -21.010  0.0000E+00  0.0000E+00  0.6000E+01  0.6000E+01
    -20.741  0.0000E+00  0.0000E+00  0.6000E+01  0.6000E+01
    -20.473  0.0000E+00  0.0000E+00  0.6000E+01  0.6000E+01
    -20.205  0.0000E+00  0.0000E+00  0.6000E+01  0.6000E+01
    -19.937  0.0000E+00  0.0000E+00  0.6000E+01  0.6000E+01
    -19.668  0.0000E+00  0.0000E+00  0.6000E+01  0.6000E+01
    -19.400  0.0000E+00  0.0000E+00  0.6000E+01  0.6000E+01
    -19.132  0.0000E+00  0.0000E+00  0.6000E+01  0.6000E+01
    -18.864  0.0000E+00  0.0000E+00  0.6000E+01  0.6000E+01
    -18.595  0.0000E+00  0.0000E+00  0.6000E+01  0.6000E+01
    -18.327  0.0000E+00  0.0000E+00  0.6000E+01  0.6000E+01
    -18.059  0.0000E+00  0.0000E+00  0.6000E+01  0.6000E+01
    -17.791  0.0000E+00  0.0000E+00  0.6000E+01  0.6000E+01
    -17.522  0.0000E+00  0.0000E+00  0.6000E+01  0.6000E+01
    -17.254  0.0000E+00  0.0000E+00  0.6000E+01  0.6000E+01
    -16.986  0.0000E+00  0.0000E+00  0.6000E+01  0.6000E+01
    -16.718  0.0000E+00  0.0000E+00  0.6000E+01  0.6000E+01
    -16.449  0.0000E+00  0.0000E+00  0.6000E+01  0.6000E+01
    -16.181  0.0000E+00  0.0000E+00  0.6000E+01  0.6000E+01
    -15.913  0.0000E+00  0.0000E+00  0.6000E+01  0.6000E+01
    -15.645  0.0000E+00  0.0000E+00  0.6000E+01  0.6000E+01
    -15.376  0.0000E+00  0.0000E+00  0.6000E+01  0.6000E+01
    -15.108  0.0000E+00  0.0000E+00  0.6000E+01  0.6000E+01
    -14.840  0.0000E+00  0.0000E+00  0.6000E+01  0.6000E+01
    -14.572  0.0000E+00  0.0000E+00  0.6000E+01  0.6000E+01
    -14.304  0.0000E+00  0.0000E+00  0.6000E+01  0.6000E+01
    -14.035  0.0000E+00  0.0000E+00  0.6000E+01  0.6000E+01
    -13.767  0.0000E+00  0.0000E+00  0.6000E+01  0.6000E+01
    -13.499  0.0000E+00  0.0000E+00  0.6000E+01  0.6000E+01
    -13.231  0.0000E+00  0.0000E+00  0.6000E+01  0.6000E+01
    -12.962  0.0000E+00  0.0000E+00  0.6000E+01  0.6000E+01
    -12.694  0.0000E+00  0.0000E+00  0.6000E+01  0.6000E+01
    -12.426  0.0000E+00  0.0000E+00  0.6000E+01  0.6000E+01
    -12.158  0.0000E+00  0.0000E+00  0.6000E+01  0.6000E+01
    -11.889  0.0000E+00  0.0000E+00  0.6000E+01  0.6000E+01
    -11.621  0.0000E+00  0.0000E+00  0.6000E+01  0.6000E+01
    -11.353  0.0000E+00  0.0000E+00  0.6000E+01  0.6000E+01
    -11.085  0.0000E+00  0.0000E+00  0.6000E+01  0.6000E+01
    -10.816  0.0000E+00  0.0000E+00  0.6000E+01  0.6000E+01
    -10.548  0.0000E+00  0.0000E+00  0.6000E+01  0.6000E+01
    -10.280  0.0000E+00  0.0000E+00  0.6000E+01  0.6000E+01
    -10.012  0.0000E+00  0.0000E+00  0.6000E+01  0.6000E+01
     -9.743  0.0000E+00  0.0000E+00  0.6000E+01  0.6000E+01
     -9.475  0.0000E+00  0.0000E+00  0.6000E+01  0.6000E+01
     -9.207  0.0000E+00  0.0000E+00  0.6000E+01  0.6000E+01
     -8.939  0.0000E+00  0.0000E+00  0.6000E+01  0.6000E+01
     -8.670  0.0000E+00  0.0000E+00  0.6000E+01  0.6000E+01
     -8.402  0.0000E+00  0.0000E+00  0.6000E+01  0.6000E+01
     -8.134  0.0000E+00  0.0000E+00  0.6000E+01  0.6000E+01
     -7.866  0.0000E+00  0.0000E+00  0.6000E+01  0.6000E+01
     -7.598  0.0000E+00  0.0000E+00  0.6000E+01  0.6000E+01
     -7.329  0.0000E+00  0.0000E+00  0.6000E+01  0.6000E+01
     -7.061  0.0000E+00  0.0000E+00  0.6000E+01  0.6000E+01
     -6.793  0.0000E+00  0.0000E+00  0.6000E+01  0.6000E+01
     -6.525  0.0000E+00  0.0000E+00  0.6000E+01  0.6000E+01
     -6.256  0.0000E+00  0.0000E+00  0.6000E+01  0.6000E+01
     -5.988  0.0000E+00  0.0000E+00  0.6000E+01  0.6000E+01
     -5.720  0.0000E+00  0.0000E+00  0.6000E+01  0.6000E+01
     -5.452  0.0000E+00  0.0000E+00  0.6000E+01  0.6000E+01
     -5.183  0.0000E+00  0.0000E+00  0.6000E+01  0.6000E+01
     -4.915  0.0000E+00  0.0000E+00  0.6000E+01  0.6000E+01
     -4.647  0.0000E+00  0.0000E+00  0.6000E+01  0.6000E+01
     -4.379  0.0000E+00  0.0000E+00  0.6000E+01  0.6000E+01
     -4.110  0.0000E+00  0.0000E+00  0.6000E+01  0.6000E+01
     -3.842  0.0000E+00  0.0000E+00  0.6000E+01  0.6000E+01
     -3.574  0.0000E+00  0.0000E+00  0.6000E+01  0.6000E+01
     -3.306  0.0000E+00  0.0000E+00  0.6000E+01  0.6000E+01
     -3.037  0.0000E+00  0.0000E+00  0.6000E+01  0.6000E+01
     -2.769  0.0000E+00  0.0000E+00  0.6000E+01  0.6000E+01
     -2.501  0.3783E-01  0.3783E-01  0.6002E+01  0.6002E+01
     -2.233  0.1959E+00  0.1959E+00  0.6034E+01  0.6034E+01
     -1.964  0.2417E+00  0.2417E+00  0.6096E+01  0.6096E+01
     -1.696  0.2100E+00  0.2100E+00  0.6154E+01  0.6154E+01
     -1.428  0.2992E+00  0.2992E+00  0.6222E+01  0.6222E+01
     -1.160  0.3819E+00  0.3819E+00  0.6314E+01  0.6314E+01
     -0.891  0.4268E+00  0.4268E+00  0.6423E+01  0.6423E+01
     -0.623  0.4533E+00  0.4533E+00  0.6541E+01  0.6541E+01
     -0.355  0.5086E+00  0.5086E+00  0.6669E+01  0.6669E+01
     -0.087  0.5830E+00  0.5830E+00  0.6815E+01  0.6815E+01
      0.181  0.6538E+00  0.6538E+00  0.6981E+01  0.6981E+01
      0.450  0.6649E+00  0.6649E+00  0.7162E+01  0.7162E+01
      0.718  0.6185E+00  0.6185E+00  0.7334E+01  0.7334E+01
      0.986  0.7021E+00  0.7021E+00  0.7507E+01  0.7507E+01
      1.254  0.7364E+00  0.7364E+00  0.7701E+01  0.7701E+01
      1.523  0.7057E+00  0.7057E+00  0.7897E+01  0.7897E+01
      1.791  0.7963E+00  0.7963E+00  0.8096E+01  0.8096E+01
      2.059  0.8562E+00  0.8562E+00  0.8315E+01  0.8315E+01
      2.327  0.9091E+00  0.9091E+00  0.8552E+01  0.8552E+01
      2.596  0.9741E+00  0.9741E+00  0.8808E+01  0.8808E+01
      2.864  0.1026E+01  0.1026E+01  0.9076E+01  0.9076E+01
      3.132  0.9224E+00  0.9224E+00  0.9336E+01  0.9336E+01
      3.400  0.9631E+00  0.9631E+00  0.9580E+01  0.9580E+01
      3.669  0.1015E+01  0.1015E+01  0.9855E+01  0.9855E+01
      3.937  0.1071E+01  0.1071E+01  0.1013E+02  0.1013E+02
      4.205  0.1245E+01  0.1245E+01  0.1045E+02  0.1045E+02
      4.473  0.1175E+01  0.1175E+01  0.1078E+02  0.1078E+02
      4.742  0.1316E+01  0.1316E+01  0.1111E+02  0.1111E+02
      5.010  0.1809E+01  0.1809E+01  0.1154E+02  0.1154E+02
      5.278  0.2403E+01  0.2403E+01  0.1206E+02  0.1206E+02
      5.546  0.2984E+01  0.2984E+01  0.1279E+02  0.1279E+02
      5.815  0.2795E+01  0.2795E+01  0.1364E+02  0.1364E+02
      6.083  0.4427E+01  0.4427E+01  0.1476E+02  0.1476E+02
      6.351  0.3080E+01  0.3080E+01  0.1583E+02  0.1583E+02
      6.619  0.1754E+01  0.1754E+01  0.1695E+02  0.1695E+02
      6.887  0.6614E+01  0.6614E+01  0.1807E+02  0.1807E+02
      7.156  0.7039E+01  0.7039E+01  0.1976E+02  0.1976E+02
      7.424  0.2943E+01  0.2943E+01  0.2103E+02  0.2103E+02
      7.692  0.1724E+01  0.1724E+01  0.2163E+02  0.2163E+02
      7.960  0.2084E+01  0.2084E+01  0.2216E+02  0.2216E+02
      8.229  0.1639E+01  0.1639E+01  0.2263E+02  0.2263E+02
      8.497  0.1895E+01  0.1895E+01  0.2313E+02  0.2313E+02
      8.765  0.1343E+01  0.1343E+01  0.2354E+02  0.2354E+02
      9.033  0.1238E+01  0.1238E+01  0.2390E+02  0.2390E+02
      9.302  0.1049E+01  0.1049E+01  0.2420E+02  0.2420E+02
      9.570  0.1274E+01  0.1274E+01  0.2450E+02  0.2450E+02
      9.838  0.1699E+01  0.1699E+01  0.2486E+02  0.2486E+02
     10.106  0.1248E+01  0.1248E+01  0.2528E+02  0.2528E+02
     10.375  0.1013E+01  0.1013E+01  0.2557E+02  0.2557E+02
     10.643  0.1260E+01  0.1260E+01  0.2588E+02  0.2588E+02
     10.911  0.1357E+01  0.1357E+01  0.2623E+02  0.2623E+02
     11.179  0.1655E+01  0.1655E+01  0.2664E+02  0.2664E+02
     11.448  0.1399E+01  0.1399E+01  0.2704E+02  0.2704E+02
     11.716  0.1428E+01  0.1428E+01  0.2742E+02  0.2742E+02
     11.984  0.1421E+01  0.1421E+01  0.2780E+02  0.2780E+02
     12.252  0.1348E+01  0.1348E+01  0.2819E+02  0.2819E+02
     12.521  0.1131E+01  0.1131E+01  0.2851E+02  0.2851E+02
     12.789  0.1333E+01  0.1333E+01  0.2885E+02  0.2885E+02
     13.057  0.1356E+01  0.1356E+01  0.2921E+02  0.2921E+02
     13.325  0.1375E+01  0.1375E+01  0.2958E+02  0.2958E+02
     13.594  0.1333E+01  0.1333E+01  0.2994E+02  0.2994E+02
     13.862  0.1242E+01  0.1242E+01  0.3031E+02  0.3031E+02
     14.130  0.1111E+01  0.1111E+01  0.3062E+02  0.3062E+02
     14.398  0.8577E+00  0.8577E+00  0.3087E+02  0.3087E+02
     14.666  0.6619E+00  0.6619E+00  0.3108E+02  0.3108E+02
     14.935  0.5655E+00  0.5655E+00  0.3124E+02  0.3124E+02
     15.203  0.5067E+00  0.5067E+00  0.3138E+02  0.3138E+02
     15.471  0.4605E+00  0.4605E+00  0.3151E+02  0.3151E+02
     15.739  0.3983E+00  0.3983E+00  0.3163E+02  0.3163E+02
     16.008  0.3113E+00  0.3113E+00  0.3173E+02  0.3173E+02
     16.276  0.2458E+00  0.2458E+00  0.3180E+02  0.3180E+02
     16.544  0.2031E+00  0.2031E+00  0.3186E+02  0.3186E+02
     16.812  0.1467E+00  0.1467E+00  0.3191E+02  0.3191E+02
     17.081  0.1056E+00  0.1056E+00  0.3194E+02  0.3194E+02
     17.349  0.7730E-01  0.7730E-01  0.3196E+02  0.3196E+02
     17.617  0.5622E-01  0.5622E-01  0.3198E+02  0.3198E+02
     17.885  0.3441E-01  0.3441E-01  0.3199E+02  0.3199E+02
     18.154  0.8305E-02  0.8305E-02  0.3200E+02  0.3200E+02
     18.422  0.0000E+00  0.0000E+00  0.3200E+02  0.3200E+02
     18.690  0.0000E+00  0.0000E+00  0.3200E+02  0.3200E+02
     18.958  0.0000E+00  0.0000E+00  0.3200E+02  0.3200E+02
     19.227  0.0000E+00  0.0000E+00  0.3200E+02  0.3200E+02
     19.495  0.0000E+00  0.0000E+00  0.3200E+02  0.3200E+02
     19.763  0.0000E+00  0.0000E+00  0.3200E+02  0.3200E+02
     20.031  0.0000E+00  0.0000E+00  0.3200E+02  0.3200E+02
     20.300  0.0000E+00  0.0000E+00  0.3200E+02  0.3200E+02
     20.568  0.0000E+00  0.0000E+00  0.3200E+02  0.3200E+02
     20.836  0.0000E+00  0.0000E+00  0.3200E+02  0.3200E+02
     21.104  0.0000E+00  0.0000E+00  0.3200E+02  0.3200E+02
     21.372  0.0000E+00  0.0000E+00  0.3200E+02  0.3200E+02
     21.641  0.0000E+00  0.0000E+00  0.3200E+02  0.3200E+02
     21.909  0.0000E+00  0.0000E+00  0.3200E+02  0.3200E+02
