       N       E                     dE             d eps       ncg     rms          rms(c)
DAV:   1     0.377991643615E+03    0.37799E+03   -0.25733E+04  7264   0.142E+03
DAV:   2    -0.147255002269E+02   -0.39272E+03   -0.37439E+03  6112   0.419E+02
DAV:   3    -0.336400076695E+02   -0.18915E+02   -0.17646E+02  7400   0.101E+02
DAV:   4    -0.341463238915E+02   -0.50632E+00   -0.50511E+00  6744   0.170E+01
DAV:   5    -0.341626036717E+02   -0.16280E-01   -0.16276E-01  7552   0.322E+00    0.298E+01
DAV:   6    -0.642400225785E+02   -0.30077E+02   -0.25731E+02  7448   0.216E+02    0.419E+01
DAV:   7    -0.315109713885E+02    0.32729E+02   -0.79835E+01  7240   0.118E+02    0.153E+01
DAV:   8    -0.290489229501E+02    0.24620E+01   -0.14220E+01  8448   0.494E+01    0.391E+00
DAV:   9    -0.292549679111E+02   -0.20604E+00   -0.80237E-01  7400   0.572E+00    0.365E+00
DAV:  10    -0.292093420083E+02    0.45626E-01   -0.66202E-01  7864   0.102E+01    0.160E+00
DAV:  11    -0.291966976386E+02    0.12644E-01   -0.73682E-02  7920   0.324E+00    0.370E-01
DAV:  12    -0.291975161568E+02   -0.81852E-03   -0.50671E-03  6848   0.479E-01    0.168E-01
DAV:  13    -0.291975656951E+02   -0.49538E-04   -0.98862E-04  7496   0.281E-01    0.166E-01
DAV:  14    -0.291974300008E+02    0.13569E-03   -0.45540E-04  8208   0.238E-01    0.422E-02
DAV:  15    -0.291974280217E+02    0.19790E-05   -0.12533E-04  8600   0.108E-01    0.176E-02
DAV:  16    -0.291974261637E+02    0.18581E-05   -0.71891E-06  7848   0.233E-02    0.664E-03
DAV:  17    -0.291974258138E+02    0.34987E-06   -0.13449E-06  7096   0.865E-03    0.323E-03
DAV:  18    -0.291974255812E+02    0.23262E-06   -0.20212E-07  8368   0.465E-03    0.683E-04
DAV:  19    -0.291974255405E+02    0.40680E-07   -0.25832E-08  5120   0.142E-03    0.127E-04
DAV:  20    -0.291974255328E+02    0.77471E-08   -0.38159E-09  3648   0.562E-04
   1 F= -.29197426E+02 E0= -.29197240E+02  d E =-.291974E+02  mag=    -0.0000
       N       E                     dE             d eps       ncg     rms          rms(c)
DAV:   1    -0.225910995048E+03   -0.19671E+03   -0.34511E+03  5888   0.851E+02    0.988E+01
DAV:   2    -0.517714571705E+02    0.17414E+03   -0.93702E+02  6672   0.249E+02    0.358E+01
DAV:   3    -0.718181807907E+02   -0.20047E+02   -0.26052E+02  6912   0.178E+02    0.467E+01
DAV:   4    -0.341446308451E+02    0.37674E+02   -0.92320E+01  7224   0.947E+01    0.146E+01
DAV:   5    -0.311853554945E+02    0.29593E+01   -0.68472E+00  8528   0.264E+01    0.296E+00
DAV:   6    -0.306007128977E+02    0.58464E+00   -0.23264E+00  6808   0.176E+01    0.513E+00
DAV:   7    -0.306422984723E+02   -0.41586E-01   -0.20222E+00  7840   0.152E+01    0.584E+00
DAV:   8    -0.304451088625E+02    0.19719E+00   -0.23935E-01  7632   0.467E+00    0.250E+00
DAV:   9    -0.304008887308E+02    0.44220E-01   -0.99939E-02  8136   0.292E+00    0.500E-01
DAV:  10    -0.304000233335E+02    0.86540E-03   -0.11511E-02  8880   0.897E-01    0.128E-01
DAV:  11    -0.304000455447E+02   -0.22211E-04   -0.15265E-03  7664   0.295E-01    0.873E-02
DAV:  12    -0.303999625191E+02    0.83026E-04   -0.18121E-04  7792   0.129E-01    0.196E-02
DAV:  13    -0.303999629024E+02   -0.38334E-06   -0.18126E-05  6936   0.371E-02    0.987E-03
DAV:  14    -0.303999624049E+02    0.49754E-06   -0.22005E-06  8096   0.120E-02    0.413E-03
DAV:  15    -0.303999624340E+02   -0.29100E-07   -0.38538E-07  7304   0.461E-03    0.217E-03
DAV:  16    -0.303999624049E+02    0.29028E-07   -0.17842E-07  8176   0.341E-03    0.205E-03
DAV:  17    -0.303999623854E+02    0.19546E-07   -0.26091E-08  6008   0.119E-03    0.144E-03
DAV:  18    -0.303999623865E+02   -0.11287E-08   -0.19267E-08  3720   0.121E-03
   2 F= -.30399962E+02 E0= -.30399519E+02  d E =-.120254E+01  mag=     0.0000
       N       E                     dE             d eps       ncg     rms          rms(c)
DAV:   1    -0.141746119187E+03   -0.11135E+03   -0.82870E+02  7504   0.321E+02    0.109E+02
DAV:   2    -0.292237954807E+03   -0.15049E+03   -0.33962E+03  9216   0.503E+02    0.905E+01
DAV:   3    -0.730264330289E+02    0.21921E+03   -0.99827E+02  7920   0.230E+02    0.388E+01
DAV:   4    -0.449797076534E+02    0.28047E+02   -0.10350E+02  7056   0.846E+01    0.226E+01
DAV:   5    -0.368321676773E+02    0.81475E+01   -0.13039E+01  7584   0.334E+01    0.143E+01
DAV:   6    -0.436056970479E+02   -0.67735E+01   -0.76571E+01  8576   0.941E+01    0.401E+01
DAV:   7    -0.332817060652E+02    0.10324E+02   -0.50719E+01  7872   0.729E+01    0.115E+01
DAV:   8    -0.319645990833E+02    0.13171E+01   -0.59442E+00  7552   0.312E+01    0.736E-01
DAV:   9    -0.319679066321E+02   -0.33075E-02   -0.29019E-01  7696   0.340E+00    0.158E+00
DAV:  10    -0.319544312506E+02    0.13475E-01   -0.28028E-02  7712   0.150E+00    0.852E-01
DAV:  11    -0.319488766630E+02    0.55546E-02   -0.23442E-02  7920   0.163E+00    0.928E-02
DAV:  12    -0.319493238220E+02   -0.44716E-03   -0.16605E-03  7760   0.313E-01    0.216E-01
DAV:  13    -0.319489341399E+02    0.38968E-03   -0.67341E-04  7840   0.290E-01    0.592E-02
DAV:  14    -0.319489001332E+02    0.34007E-04   -0.15073E-04  8496   0.107E-01    0.101E-02
DAV:  15    -0.319489007150E+02   -0.58173E-06   -0.25737E-05  7632   0.535E-02    0.161E-02
DAV:  16    -0.319488984202E+02    0.22948E-05   -0.28490E-06  8688   0.189E-02    0.608E-03
DAV:  17    -0.319488980203E+02    0.39983E-06   -0.86352E-07  8664   0.856E-03    0.999E-04
DAV:  18    -0.319488980755E+02   -0.55171E-07   -0.41687E-08  6176   0.204E-03    0.129E-03
DAV:  19    -0.319488980334E+02    0.42102E-07   -0.49359E-08  5448   0.242E-03    0.132E-04
DAV:  20    -0.319488980385E+02   -0.50750E-08   -0.22488E-09  3184   0.356E-04
   3 F= -.31948898E+02 E0= -.31948691E+02  d E =-.275147E+01  mag=    -0.0000
       N       E                     dE             d eps       ncg     rms          rms(c)
DAV:   1    -0.319779716228E+02   -0.29074E-01   -0.20286E-01  6608   0.576E+00    0.203E+00
DAV:   2    -0.322075474798E+02   -0.22958E+00   -0.13066E+00  7760   0.137E+01    0.514E+00
DAV:   3    -0.319484009272E+02    0.25915E+00   -0.68964E-01  7776   0.109E+01    0.170E-01
DAV:   4    -0.319499614103E+02   -0.15605E-02   -0.22926E-02  6064   0.769E-01    0.267E-01
DAV:   5    -0.319494743954E+02    0.48701E-03   -0.12581E-03  7808   0.397E-01    0.352E-02
DAV:   6    -0.319494668432E+02    0.75522E-05   -0.65725E-05  8152   0.619E-02    0.122E-02
DAV:   7    -0.319494652687E+02    0.15745E-05   -0.85484E-06  6976   0.334E-02    0.279E-03
DAV:   8    -0.319494650039E+02    0.26478E-06   -0.37872E-07  7584   0.552E-03    0.575E-04
DAV:   9    -0.319494648978E+02    0.10617E-06   -0.48629E-08  6704   0.167E-03    0.535E-04
DAV:  10    -0.319494648479E+02    0.49814E-07   -0.50666E-09  3536   0.768E-04    0.789E-05
DAV:  11    -0.319494648428E+02    0.51359E-08   -0.15319E-09  3272   0.277E-04
   4 F= -.31949465E+02 E0= -.31949259E+02  d E =-.275204E+01  mag=    -0.0000
       N       E                     dE             d eps       ncg     rms          rms(c)
DAV:   1    -0.323542838850E+02   -0.40482E+00   -0.10258E+01  7344   0.476E+01    0.543E+00
DAV:   2    -0.327627835807E+02   -0.40850E+00   -0.42971E+00  7488   0.260E+01    0.780E+00
DAV:   3    -0.321560666018E+02    0.60672E+00   -0.20749E+00  7616   0.202E+01    0.225E+00
DAV:   4    -0.320998623302E+02    0.56204E-01   -0.16006E-01  6976   0.299E+00    0.694E-01
DAV:   5    -0.320963535163E+02    0.35088E-02   -0.21219E-02  7536   0.158E+00    0.127E-01
DAV:   6    -0.320962254039E+02    0.12811E-03   -0.10816E-03  7136   0.330E-01    0.561E-02
DAV:   7    -0.320962530013E+02   -0.27597E-04   -0.25758E-04  7648   0.197E-01    0.533E-02
DAV:   8    -0.320962239163E+02    0.29085E-04   -0.54650E-05  7856   0.918E-02    0.951E-03
DAV:   9    -0.320962226986E+02    0.12178E-05   -0.72525E-06  8336   0.247E-02    0.332E-03
DAV:  10    -0.320962225596E+02    0.13895E-06   -0.51056E-07  7472   0.755E-03    0.455E-04
DAV:  11    -0.320962225433E+02    0.16324E-07   -0.32266E-08  6352   0.160E-03    0.298E-04
DAV:  12    -0.320962225307E+02    0.12628E-07   -0.56095E-09  3408   0.815E-04    0.446E-05
DAV:  13    -0.320962225290E+02    0.16680E-08   -0.12584E-09  3168   0.391E-04
   5 F= -.32096223E+02 E0= -.32095586E+02  d E =-.146758E+00  mag=    -0.0000
       N       E                     dE             d eps       ncg     rms          rms(c)
DAV:   1    -0.324247359627E+02   -0.32851E+00   -0.10208E+01  7408   0.472E+01    0.550E+00
DAV:   2    -0.328304242972E+02   -0.40569E+00   -0.43565E+00  7472   0.263E+01    0.778E+00
DAV:   3    -0.322164595741E+02    0.61396E+00   -0.20788E+00  7696   0.207E+01    0.230E+00
DAV:   4    -0.321584959366E+02    0.57964E-01   -0.16171E-01  7104   0.307E+00    0.642E-01
DAV:   5    -0.321551960314E+02    0.32999E-02   -0.19231E-02  7136   0.140E+00    0.135E-01
DAV:   6    -0.321550026488E+02    0.19338E-03   -0.10371E-03  7664   0.308E-01    0.513E-02
DAV:   7    -0.321550190383E+02   -0.16390E-04   -0.12818E-04  7280   0.989E-02    0.270E-02
DAV:   8    -0.321550205018E+02   -0.14635E-05   -0.59461E-05  7792   0.101E-01    0.278E-02
DAV:   9    -0.321550131470E+02    0.73548E-05   -0.13051E-05  7776   0.464E-02    0.289E-03
DAV:  10    -0.321550130973E+02    0.49675E-07   -0.10106E-06  7360   0.705E-03    0.490E-04
DAV:  11    -0.321550130528E+02    0.44553E-07   -0.58242E-08  7088   0.174E-03    0.614E-04
DAV:  12    -0.321550130439E+02    0.88594E-08   -0.85450E-09  4168   0.115E-03
   6 F= -.32155013E+02 E0= -.32154606E+02  d E =-.205548E+00  mag=     0.0000
       N       E                     dE             d eps       ncg     rms          rms(c)
DAV:   1    -0.321627821256E+02   -0.77691E-02   -0.23929E-01  7440   0.726E+00    0.860E-01
DAV:   2    -0.321755191786E+02   -0.12737E-01   -0.10427E-01  7520   0.420E+00    0.141E+00
DAV:   3    -0.321576407125E+02    0.17878E-01   -0.58985E-02  7840   0.325E+00    0.392E-01
DAV:   4    -0.321560824861E+02    0.15582E-02   -0.36848E-03  6960   0.519E-01    0.103E-01
DAV:   5    -0.321559837002E+02    0.98786E-04   -0.52498E-04  7360   0.217E-01    0.232E-02
DAV:   6    -0.321559771584E+02    0.65418E-05   -0.28416E-05  7568   0.533E-02    0.925E-03
DAV:   7    -0.321559773576E+02   -0.19922E-06   -0.31357E-06  7120   0.129E-02    0.200E-03
DAV:   8    -0.321559773381E+02    0.19524E-07   -0.16979E-07  7920   0.365E-03    0.696E-04
DAV:   9    -0.321559773126E+02    0.25535E-07   -0.17166E-08  5456   0.116E-03    0.151E-04
DAV:  10    -0.321559773046E+02    0.79581E-08   -0.30843E-09  3360   0.623E-04
   7 F= -.32155977E+02 E0= -.32155493E+02  d E =-.206512E+00  mag=     0.0000
       N       E                     dE             d eps       ncg     rms          rms(c)
DAV:   1    -0.322278020735E+02   -0.71825E-01   -0.21183E+00  7568   0.202E+01    0.203E+00
DAV:   2    -0.321933898401E+02    0.34412E-01   -0.26469E-01  6736   0.600E+00    0.104E+00
DAV:   3    -0.321928579974E+02    0.53184E-03   -0.88807E-02  8352   0.349E+00    0.148E+00
DAV:   4    -0.321749067439E+02    0.17951E-01   -0.51542E-02  7872   0.293E+00    0.867E-02
DAV:   5    -0.321749315985E+02   -0.24855E-04   -0.20351E-03  6208   0.328E-01    0.481E-02
DAV:   6    -0.321749143774E+02    0.17221E-04   -0.16104E-04  7760   0.145E-01    0.276E-02
DAV:   7    -0.321749151568E+02   -0.77939E-06   -0.22489E-05  6912   0.474E-02    0.667E-03
DAV:   8    -0.321749144812E+02    0.67568E-06   -0.32657E-06  8200   0.185E-02    0.349E-03
DAV:   9    -0.321749144421E+02    0.39079E-07   -0.44050E-07  7488   0.744E-03    0.367E-04
DAV:  10    -0.321749144429E+02   -0.83310E-09   -0.25843E-08  6128   0.127E-03
   8 F= -.32174914E+02 E0= -.32174906E+02  d E =-.189371E-01  mag=     0.0000
       N       E                     dE             d eps       ncg     rms          rms(c)
DAV:   1    -0.322137875454E+02   -0.38873E-01   -0.13914E+00  7520   0.164E+01    0.166E+00
DAV:   2    -0.321984816389E+02    0.15306E-01   -0.20561E-01  6752   0.551E+00    0.111E+00
DAV:   3    -0.322009607193E+02   -0.24791E-02   -0.11192E-01  7944   0.443E+00    0.141E+00
DAV:   4    -0.321812040818E+02    0.19757E-01   -0.51636E-02  7600   0.292E+00    0.633E-02
DAV:   5    -0.321813509617E+02   -0.14688E-03   -0.24309E-03  6400   0.364E-01    0.357E-02
DAV:   6    -0.321813490094E+02    0.19523E-05   -0.11577E-04  7888   0.120E-01    0.233E-02
DAV:   7    -0.321813482902E+02    0.71913E-06   -0.18056E-05  7440   0.467E-02    0.388E-03
DAV:   8    -0.321813482136E+02    0.76615E-07   -0.82359E-07  7024   0.627E-03    0.226E-03
DAV:   9    -0.321813481128E+02    0.10077E-06   -0.19940E-07  7264   0.426E-03    0.351E-04
DAV:  10    -0.321813481185E+02   -0.56380E-08   -0.12663E-08  4544   0.113E-03
   9 F= -.32181348E+02 E0= -.32180990E+02  d E =-.253708E-01  mag=     0.0000
       N       E                     dE             d eps       ncg     rms          rms(c)
DAV:   1    -0.321846060326E+02   -0.32579E-02   -0.12342E-01  7472   0.490E+00    0.496E-01
DAV:   2    -0.321832201476E+02    0.13859E-02   -0.18347E-02  6752   0.166E+00    0.331E-01
DAV:   3    -0.321834343139E+02   -0.21417E-03   -0.99974E-03  7888   0.132E+00    0.417E-01
DAV:   4    -0.321816880759E+02    0.17462E-02   -0.45406E-03  7648   0.877E-01    0.196E-02
DAV:   5    -0.321817004661E+02   -0.12390E-04   -0.21806E-04  6496   0.107E-01    0.108E-02
DAV:   6    -0.321817000752E+02    0.39089E-06   -0.10901E-05  7776   0.368E-02    0.710E-03
DAV:   7    -0.321817000523E+02    0.22865E-07   -0.17077E-06  7400   0.144E-02    0.118E-03
DAV:   8    -0.321817000478E+02    0.44556E-08   -0.76722E-08  7008   0.187E-03
  10 F= -.32181700E+02 E0= -.32181407E+02  d E =-.257227E-01  mag=    -0.0000
       N       E                     dE             d eps       ncg     rms          rms(c)
DAV:   1    -0.321274363018E+02    0.54264E-01   -0.33837E+00  6688   0.649E+01    0.301E+00
DAV:   2    -0.325931547118E+02   -0.46572E+00   -0.32268E+00  7640   0.212E+01    0.704E+00
DAV:   3    -0.321943648097E+02    0.39879E+00   -0.14420E+00  7848   0.153E+01    0.116E+00
DAV:   4    -0.321889735474E+02    0.53913E-02   -0.43628E-02  6656   0.177E+00    0.693E-01
DAV:   5    -0.321852732750E+02    0.37003E-02   -0.13782E-02  7720   0.146E+00    0.941E-02
DAV:   6    -0.321851981355E+02    0.75139E-04   -0.92185E-04  6848   0.300E-01    0.349E-02
DAV:   7    -0.321851982438E+02   -0.10831E-06   -0.51900E-05  7184   0.527E-02    0.108E-02
DAV:   8    -0.321851976517E+02    0.59215E-06   -0.74668E-06  7232   0.386E-02    0.396E-03
DAV:   9    -0.321851978469E+02   -0.19520E-06   -0.10631E-06  6888   0.869E-03    0.159E-03
DAV:  10    -0.321851978898E+02   -0.42923E-07   -0.19054E-07  8224   0.492E-03    0.597E-04
DAV:  11    -0.321851979294E+02   -0.39552E-07   -0.21367E-08  5328   0.134E-03    0.206E-04
DAV:  12    -0.321851979286E+02    0.75033E-09   -0.36548E-09  3368   0.562E-04
  11 F= -.32185198E+02 E0= -.32184976E+02  d E =-.349788E-02  mag=    -0.0000
       N       E                     dE             d eps       ncg     rms          rms(c)
DAV:   1    -0.321839663902E+02    0.12315E-02   -0.76763E-02  6848   0.985E+00    0.459E-01
DAV:   2    -0.321940155227E+02   -0.10049E-01   -0.73190E-02  7472   0.321E+00    0.944E-01
DAV:   3    -0.321853579990E+02    0.86575E-02   -0.30246E-02  7696   0.234E+00    0.139E-01
DAV:   4    -0.321853161199E+02    0.41879E-04   -0.89620E-04  6720   0.225E-01    0.905E-02
DAV:   5    -0.321852609398E+02    0.55180E-04   -0.29000E-04  7592   0.212E-01    0.220E-02
DAV:   6    -0.321852560025E+02    0.49373E-05   -0.20442E-05  7272   0.510E-02    0.537E-03
DAV:   7    -0.321852561504E+02   -0.14789E-06   -0.27124E-06  8072   0.130E-02    0.233E-03
DAV:   8    -0.321852561078E+02    0.42587E-07   -0.34293E-07  7544   0.717E-03    0.571E-04
DAV:   9    -0.321852561244E+02   -0.16626E-07   -0.17246E-08  4648   0.169E-03    0.149E-04
DAV:  10    -0.321852561355E+02   -0.11007E-07   -0.33565E-09  3440   0.596E-04    0.726E-05
DAV:  11    -0.321852561396E+02   -0.41027E-08   -0.75763E-10  3296   0.265E-04
  12 F= -.32185256E+02 E0= -.32185049E+02  d E =-.355609E-02  mag=    -0.0000
       N       E                     dE             d eps       ncg     rms          rms(c)
DAV:   1    -0.320843149516E+02    0.10094E+00   -0.36487E+00  8032   0.689E+01    0.171E+00
DAV:   2    -0.323056230298E+02   -0.22131E+00   -0.18085E+00  7232   0.132E+01    0.341E+00
DAV:   3    -0.321896273215E+02    0.11600E+00   -0.40624E-01  7760   0.901E+00    0.528E-01
DAV:   4    -0.321888003293E+02    0.82699E-03   -0.14169E-02  6752   0.911E-01    0.348E-01
DAV:   5    -0.321878571190E+02    0.94321E-03   -0.34268E-03  7504   0.744E-01    0.687E-02
DAV:   6    -0.321878268122E+02    0.30307E-04   -0.33270E-04  7584   0.198E-01    0.677E-02
DAV:   7    -0.321877994478E+02    0.27364E-04   -0.13334E-04  7264   0.146E-01    0.102E-02
DAV:   8    -0.321877983266E+02    0.11212E-05   -0.90859E-06  6656   0.388E-02    0.270E-03
DAV:   9    -0.321877982826E+02    0.43986E-07   -0.78963E-07  7584   0.875E-03    0.535E-04
DAV:  10    -0.321877982557E+02    0.26922E-07   -0.69137E-08  6544   0.253E-03    0.360E-04
DAV:  11    -0.321877982526E+02    0.31459E-08   -0.47899E-09  3616   0.908E-04
  13 F= -.32187798E+02 E0= -.32187577E+02  d E =-.254211E-02  mag=    -0.0000
       N       E                     dE             d eps       ncg     rms          rms(c)
DAV:   1    -0.321738095847E+02    0.13989E-01   -0.45906E-01  7632   0.246E+01    0.592E-01
DAV:   2    -0.322010917377E+02   -0.27282E-01   -0.23137E-01  7168   0.462E+00    0.111E+00
DAV:   3    -0.321883172688E+02    0.12774E-01   -0.48985E-02  7696   0.307E+00    0.206E-01
DAV:   4    -0.321881643437E+02    0.15293E-03   -0.16097E-03  6848   0.329E-01    0.138E-01
DAV:   5    -0.321880123843E+02    0.15196E-03   -0.48452E-04  7520   0.280E-01    0.301E-02
DAV:   6    -0.321880065736E+02    0.58107E-05   -0.41467E-05  7536   0.692E-02    0.245E-02
DAV:   7    -0.321880030004E+02    0.35732E-05   -0.19127E-05  7392   0.551E-02    0.460E-03
DAV:   8    -0.321880027144E+02    0.28594E-06   -0.14678E-06  6688   0.159E-02    0.454E-04
DAV:   9    -0.321880027132E+02    0.12424E-08   -0.57142E-08  7024   0.183E-03
  14 F= -.32188003E+02 E0= -.32187777E+02  d E =-.274657E-02  mag=    -0.0000
       N       E                     dE             d eps       ncg     rms          rms(c)
DAV:   1    -0.321617206526E+02    0.26282E-01   -0.10201E+00  8560   0.349E+01    0.433E-01
DAV:   2    -0.321900297206E+02   -0.28309E-01   -0.29961E-01  5968   0.405E+00    0.354E-01
DAV:   3    -0.321900061766E+02    0.23544E-04   -0.12537E-02  8208   0.135E+00    0.294E-01
DAV:   4    -0.321891096865E+02    0.89649E-03   -0.25108E-03  8112   0.652E-01    0.801E-02
DAV:   5    -0.321890305535E+02    0.79133E-04   -0.24499E-04  7424   0.169E-01    0.191E-02
DAV:   6    -0.321890301558E+02    0.39767E-06   -0.34932E-05  6800   0.553E-02    0.815E-03
DAV:   7    -0.321890302392E+02   -0.83426E-07   -0.15853E-06  7456   0.133E-02    0.229E-03
DAV:   8    -0.321890303627E+02   -0.12354E-06   -0.22901E-07  7072   0.401E-03    0.570E-04
DAV:   9    -0.321890303650E+02   -0.22756E-08   -0.15119E-08  4512   0.167E-03
  15 F= -.32189030E+02 E0= -.32188807E+02  d E =-.102765E-02  mag=    -0.0000
       N       E                     dE             d eps       ncg     rms          rms(c)
DAV:   1    -0.321799896156E+02    0.90407E-02   -0.34055E-01  8528   0.202E+01    0.250E-01
DAV:   2    -0.321895302421E+02   -0.95406E-02   -0.10089E-01  6000   0.235E+00    0.204E-01
DAV:   3    -0.321895227236E+02    0.75185E-05   -0.41700E-03  8128   0.780E-01    0.170E-01
DAV:   4    -0.321892264003E+02    0.29632E-03   -0.84679E-04  8192   0.378E-01    0.473E-02
DAV:   5    -0.321891986605E+02    0.27740E-04   -0.82965E-05  7440   0.100E-01    0.110E-02
DAV:   6    -0.321891985864E+02    0.74145E-07   -0.12095E-05  6800   0.326E-02    0.469E-03
DAV:   7    -0.321891986113E+02   -0.24902E-07   -0.53399E-07  7584   0.775E-03    0.135E-03
DAV:   8    -0.321891986590E+02   -0.47683E-07   -0.78620E-08  6944   0.231E-03    0.340E-04
DAV:   9    -0.321891986621E+02   -0.31105E-08   -0.50099E-09  3504   0.102E-03
  16 F= -.32189199E+02 E0= -.32189011E+02  d E =-.119595E-02  mag=    -0.0000
       N       E                     dE             d eps       ncg     rms          rms(c)
DAV:   1    -0.321897052101E+02   -0.50655E-03   -0.32422E-02  7648   0.387E+00    0.271E-01
DAV:   2    -0.321905424911E+02   -0.83728E-03   -0.12537E-02  7472   0.137E+00    0.334E-01
DAV:   3    -0.321895235022E+02    0.10190E-02   -0.47359E-03  7824   0.923E-01    0.136E-01
DAV:   4    -0.321892987416E+02    0.22476E-03   -0.56906E-04  7424   0.273E-01    0.109E-02
DAV:   5    -0.321892989041E+02   -0.16253E-06   -0.31187E-05  6848   0.501E-02    0.564E-03
DAV:   6    -0.321892986411E+02    0.26298E-06   -0.17609E-06  7888   0.120E-02    0.264E-03
DAV:   7    -0.321892986562E+02   -0.15052E-07   -0.20517E-07  7376   0.410E-03    0.482E-04
DAV:   8    -0.321892986284E+02    0.27767E-07   -0.18903E-08  4896   0.139E-03    0.229E-04
DAV:   9    -0.321892986239E+02    0.45311E-08   -0.41127E-09  3520   0.802E-04
  17 F= -.32189299E+02 E0= -.32189174E+02  d E =-.999618E-04  mag=    -0.0000
       N       E                     dE             d eps       ncg     rms          rms(c)
DAV:   1    -0.321892987696E+02   -0.14117E-06   -0.90623E-06  7632   0.648E-02    0.454E-03
DAV:   2    -0.321892989406E+02   -0.17104E-06   -0.35188E-06  7440   0.230E-02    0.561E-03
DAV:   3    -0.321892987058E+02    0.23480E-06   -0.13354E-06  7808   0.155E-02    0.228E-03
DAV:   4    -0.321892986367E+02    0.69120E-07   -0.16009E-07  7424   0.467E-03    0.180E-04
DAV:   5    -0.321892986325E+02    0.42492E-08   -0.81059E-09  3264   0.881E-04
  18 F= -.32189299E+02 E0= -.32189173E+02  d E =-.999704E-04  mag=    -0.0000
