   7   7   0   0
  0.1309338E+02  0.4634140E-09  0.4634140E-09  0.4634140E-09  0.5000000E-15
  1.000000000000000E-004
  CAR 
 unknown system                          
     20.61331738    -58.76799757  301      8.64429713      1.00000000
    -58.768  0.0000E+00  0.0000E+00  0.0000E+00  0.0000E+00
    -58.503  0.0000E+00  0.0000E+00  0.0000E+00  0.0000E+00
    -58.239  0.0000E+00  0.0000E+00  0.0000E+00  0.0000E+00
    -57.974  0.0000E+00  0.0000E+00  0.0000E+00  0.0000E+00
    -57.710  0.0000E+00  0.0000E+00  0.0000E+00  0.0000E+00
    -57.445  0.0000E+00  0.0000E+00  0.0000E+00  0.0000E+00
    -57.180  0.0000E+00  0.0000E+00  0.0000E+00  0.0000E+00
    -56.916  0.0000E+00  0.0000E+00  0.0000E+00  0.0000E+00
    -56.651  0.0000E+00  0.0000E+00  0.0000E+00  0.0000E+00
    -56.387  0.0000E+00  0.0000E+00  0.0000E+00  0.0000E+00
    -56.122  0.0000E+00  0.0000E+00  0.0000E+00  0.0000E+00
    -55.857  0.0000E+00  0.0000E+00  0.0000E+00  0.0000E+00
    -55.593  0.0000E+00  0.0000E+00  0.0000E+00  0.0000E+00
    -55.328  0.0000E+00  0.0000E+00  0.0000E+00  0.0000E+00
    -55.064  0.0000E+00  0.0000E+00  0.3000E+01  0.3000E+01
    -54.799  0.0000E+00  0.0000E+00  0.9000E+01  0.9000E+01
    -54.534  0.0000E+00  0.0000E+00  0.9000E+01  0.9000E+01
    -54.270  0.0000E+00  0.0000E+00  0.9000E+01  0.9000E+01
    -54.005  0.0000E+00  0.0000E+00  0.9000E+01  0.9000E+01
    -53.741  0.0000E+00  0.0000E+00  0.9000E+01  0.9000E+01
    -53.476  0.0000E+00  0.0000E+00  0.9000E+01  0.9000E+01
    -53.211  0.0000E+00  0.0000E+00  0.9000E+01  0.9000E+01
    -52.947  0.0000E+00  0.0000E+00  0.9000E+01  0.9000E+01
    -52.682  0.0000E+00  0.0000E+00  0.9000E+01  0.9000E+01
    -52.417  0.0000E+00  0.0000E+00  0.9000E+01  0.9000E+01
    -52.153  0.0000E+00  0.0000E+00  0.9000E+01  0.9000E+01
    -51.888  0.0000E+00  0.0000E+00  0.9000E+01  0.9000E+01
    -51.624  0.0000E+00  0.0000E+00  0.9000E+01  0.9000E+01
    -51.359  0.0000E+00  0.0000E+00  0.9000E+01  0.9000E+01
    -51.094  0.0000E+00  0.0000E+00  0.9000E+01  0.9000E+01
    -50.830  0.0000E+00  0.0000E+00  0.9000E+01  0.9000E+01
    -50.565  0.0000E+00  0.0000E+00  0.9000E+01  0.9000E+01
    -50.301  0.0000E+00  0.0000E+00  0.9000E+01  0.9000E+01
    -50.036  0.0000E+00  0.0000E+00  0.9000E+01  0.9000E+01
    -49.771  0.0000E+00  0.0000E+00  0.9000E+01  0.9000E+01
    -49.507  0.0000E+00  0.0000E+00  0.9000E+01  0.9000E+01
    -49.242  0.0000E+00  0.0000E+00  0.9000E+01  0.9000E+01
    -48.978  0.0000E+00  0.0000E+00  0.9000E+01  0.9000E+01
    -48.713  0.0000E+00  0.0000E+00  0.9000E+01  0.9000E+01
    -48.448  0.0000E+00  0.0000E+00  0.9000E+01  0.9000E+01
    -48.184  0.0000E+00  0.0000E+00  0.9000E+01  0.9000E+01
    -47.919  0.0000E+00  0.0000E+00  0.9000E+01  0.9000E+01
    -47.655  0.0000E+00  0.0000E+00  0.9000E+01  0.9000E+01
    -47.390  0.0000E+00  0.0000E+00  0.9000E+01  0.9000E+01
    -47.125  0.0000E+00  0.0000E+00  0.9000E+01  0.9000E+01
    -46.861  0.0000E+00  0.0000E+00  0.9000E+01  0.9000E+01
    -46.596  0.0000E+00  0.0000E+00  0.9000E+01  0.9000E+01
    -46.332  0.0000E+00  0.0000E+00  0.9000E+01  0.9000E+01
    -46.067  0.0000E+00  0.0000E+00  0.9000E+01  0.9000E+01
    -45.802  0.0000E+00  0.0000E+00  0.9000E+01  0.9000E+01
    -45.538  0.0000E+00  0.0000E+00  0.9000E+01  0.9000E+01
    -45.273  0.0000E+00  0.0000E+00  0.9000E+01  0.9000E+01
    -45.009  0.0000E+00  0.0000E+00  0.9000E+01  0.9000E+01
    -44.744  0.0000E+00  0.0000E+00  0.9000E+01  0.9000E+01
    -44.479  0.0000E+00  0.0000E+00  0.9000E+01  0.9000E+01
    -44.215  0.0000E+00  0.0000E+00  0.9000E+01  0.9000E+01
    -43.950  0.0000E+00  0.0000E+00  0.9000E+01  0.9000E+01
    -43.686  0.0000E+00  0.0000E+00  0.9000E+01  0.9000E+01
    -43.421  0.0000E+00  0.0000E+00  0.9000E+01  0.9000E+01
    -43.156  0.0000E+00  0.0000E+00  0.9000E+01  0.9000E+01
    -42.892  0.0000E+00  0.0000E+00  0.9000E+01  0.9000E+01
    -42.627  0.0000E+00  0.0000E+00  0.9000E+01  0.9000E+01
    -42.363  0.0000E+00  0.0000E+00  0.9000E+01  0.9000E+01
    -42.098  0.0000E+00  0.0000E+00  0.9000E+01  0.9000E+01
    -41.833  0.0000E+00  0.0000E+00  0.9000E+01  0.9000E+01
    -41.569  0.0000E+00  0.0000E+00  0.9000E+01  0.9000E+01
    -41.304  0.0000E+00  0.0000E+00  0.9000E+01  0.9000E+01
    -41.040  0.0000E+00  0.0000E+00  0.9000E+01  0.9000E+01
    -40.775  0.0000E+00  0.0000E+00  0.9000E+01  0.9000E+01
    -40.510  0.0000E+00  0.0000E+00  0.9000E+01  0.9000E+01
    -40.246  0.0000E+00  0.0000E+00  0.9000E+01  0.9000E+01
    -39.981  0.0000E+00  0.0000E+00  0.9000E+01  0.9000E+01
    -39.716  0.0000E+00  0.0000E+00  0.9000E+01  0.9000E+01
    -39.452  0.0000E+00  0.0000E+00  0.9000E+01  0.9000E+01
    -39.187  0.0000E+00  0.0000E+00  0.9000E+01  0.9000E+01
    -38.923  0.0000E+00  0.0000E+00  0.9000E+01  0.9000E+01
    -38.658  0.0000E+00  0.0000E+00  0.9000E+01  0.9000E+01
    -38.393  0.0000E+00  0.0000E+00  0.9000E+01  0.9000E+01
    -38.129  0.0000E+00  0.0000E+00  0.9000E+01  0.9000E+01
    -37.864  0.0000E+00  0.0000E+00  0.9000E+01  0.9000E+01
    -37.600  0.0000E+00  0.0000E+00  0.9000E+01  0.9000E+01
    -37.335  0.0000E+00  0.0000E+00  0.9000E+01  0.9000E+01
    -37.070  0.0000E+00  0.0000E+00  0.9000E+01  0.9000E+01
    -36.806  0.0000E+00  0.0000E+00  0.9000E+01  0.9000E+01
    -36.541  0.0000E+00  0.0000E+00  0.9000E+01  0.9000E+01
    -36.277  0.0000E+00  0.0000E+00  0.9000E+01  0.9000E+01
    -36.012  0.0000E+00  0.0000E+00  0.9000E+01  0.9000E+01
    -35.747  0.0000E+00  0.0000E+00  0.9000E+01  0.9000E+01
    -35.483  0.0000E+00  0.0000E+00  0.9000E+01  0.9000E+01
    -35.218  0.0000E+00  0.0000E+00  0.9000E+01  0.9000E+01
    -34.954  0.0000E+00  0.0000E+00  0.9000E+01  0.9000E+01
    -34.689  0.0000E+00  0.0000E+00  0.9000E+01  0.9000E+01
    -34.424  0.0000E+00  0.0000E+00  0.9000E+01  0.9000E+01
    -34.160  0.0000E+00  0.0000E+00  0.9000E+01  0.9000E+01
    -33.895  0.0000E+00  0.0000E+00  0.9000E+01  0.9000E+01
    -33.631  0.0000E+00  0.0000E+00  0.9000E+01  0.9000E+01
    -33.366  0.0000E+00  0.0000E+00  0.9000E+01  0.9000E+01
    -33.101  0.0000E+00  0.0000E+00  0.9000E+01  0.9000E+01
    -32.837  0.0000E+00  0.0000E+00  0.9000E+01  0.9000E+01
    -32.572  0.0000E+00  0.0000E+00  0.9000E+01  0.9000E+01
    -32.308  0.0000E+00  0.0000E+00  0.9000E+01  0.9000E+01
    -32.043  0.0000E+00  0.0000E+00  0.9000E+01  0.9000E+01
    -31.778  0.0000E+00  0.0000E+00  0.9000E+01  0.9000E+01
    -31.514  0.0000E+00  0.0000E+00  0.9000E+01  0.9000E+01
    -31.249  0.0000E+00  0.0000E+00  0.9000E+01  0.9000E+01
    -30.985  0.0000E+00  0.0000E+00  0.9000E+01  0.9000E+01
    -30.720  0.0000E+00  0.0000E+00  0.9000E+01  0.9000E+01
    -30.455  0.0000E+00  0.0000E+00  0.9000E+01  0.9000E+01
    -30.191  0.0000E+00  0.0000E+00  0.9000E+01  0.9000E+01
    -29.926  0.0000E+00  0.0000E+00  0.9000E+01  0.9000E+01
    -29.662  0.0000E+00  0.0000E+00  0.9000E+01  0.9000E+01
    -29.397  0.0000E+00  0.0000E+00  0.9000E+01  0.9000E+01
    -29.132  0.0000E+00  0.0000E+00  0.9000E+01  0.9000E+01
    -28.868  0.0000E+00  0.0000E+00  0.9000E+01  0.9000E+01
    -28.603  0.0000E+00  0.0000E+00  0.9000E+01  0.9000E+01
    -28.338  0.0000E+00  0.0000E+00  0.9000E+01  0.9000E+01
    -28.074  0.0000E+00  0.0000E+00  0.9000E+01  0.9000E+01
    -27.809  0.0000E+00  0.0000E+00  0.9000E+01  0.9000E+01
    -27.545  0.0000E+00  0.0000E+00  0.9000E+01  0.9000E+01
    -27.280  0.0000E+00  0.0000E+00  0.9000E+01  0.9000E+01
    -27.015  0.0000E+00  0.0000E+00  0.9000E+01  0.9000E+01
    -26.751  0.0000E+00  0.0000E+00  0.9000E+01  0.9000E+01
    -26.486  0.0000E+00  0.0000E+00  0.9000E+01  0.9000E+01
    -26.222  0.0000E+00  0.0000E+00  0.9000E+01  0.9000E+01
    -25.957  0.0000E+00  0.0000E+00  0.9000E+01  0.9000E+01
    -25.692  0.0000E+00  0.0000E+00  0.9000E+01  0.9000E+01
    -25.428  0.0000E+00  0.0000E+00  0.9000E+01  0.9000E+01
    -25.163  0.0000E+00  0.0000E+00  0.9000E+01  0.9000E+01
    -24.899  0.0000E+00  0.0000E+00  0.9000E+01  0.9000E+01
    -24.634  0.0000E+00  0.0000E+00  0.9000E+01  0.9000E+01
    -24.369  0.0000E+00  0.0000E+00  0.9000E+01  0.9000E+01
    -24.105  0.0000E+00  0.0000E+00  0.9000E+01  0.9000E+01
    -23.840  0.0000E+00  0.0000E+00  0.9000E+01  0.9000E+01
    -23.576  0.0000E+00  0.0000E+00  0.9000E+01  0.9000E+01
    -23.311  0.0000E+00  0.0000E+00  0.9000E+01  0.9000E+01
    -23.046  0.0000E+00  0.0000E+00  0.9000E+01  0.9000E+01
    -22.782  0.0000E+00  0.0000E+00  0.9000E+01  0.9000E+01
    -22.517  0.0000E+00  0.0000E+00  0.9000E+01  0.9000E+01
    -22.253  0.0000E+00  0.0000E+00  0.9000E+01  0.9000E+01
    -21.988  0.0000E+00  0.0000E+00  0.9000E+01  0.9000E+01
    -21.723  0.0000E+00  0.0000E+00  0.9000E+01  0.9000E+01
    -21.459  0.0000E+00  0.0000E+00  0.9000E+01  0.9000E+01
    -21.194  0.0000E+00  0.0000E+00  0.9000E+01  0.9000E+01
    -20.930  0.0000E+00  0.0000E+00  0.9000E+01  0.9000E+01
    -20.665  0.0000E+00  0.0000E+00  0.9000E+01  0.9000E+01
    -20.400  0.0000E+00  0.0000E+00  0.9000E+01  0.9000E+01
    -20.136  0.0000E+00  0.0000E+00  0.9000E+01  0.9000E+01
    -19.871  0.0000E+00  0.0000E+00  0.9000E+01  0.9000E+01
    -19.607  0.0000E+00  0.0000E+00  0.9000E+01  0.9000E+01
    -19.342  0.0000E+00  0.0000E+00  0.9000E+01  0.9000E+01
    -19.077  0.0000E+00  0.0000E+00  0.9000E+01  0.9000E+01
    -18.813  0.0000E+00  0.0000E+00  0.9000E+01  0.9000E+01
    -18.548  0.0000E+00  0.0000E+00  0.9000E+01  0.9000E+01
    -18.284  0.0000E+00  0.0000E+00  0.9000E+01  0.9000E+01
    -18.019  0.0000E+00  0.0000E+00  0.9000E+01  0.9000E+01
    -17.754  0.0000E+00  0.0000E+00  0.9000E+01  0.9000E+01
    -17.490  0.0000E+00  0.0000E+00  0.9000E+01  0.9000E+01
    -17.225  0.0000E+00  0.0000E+00  0.9000E+01  0.9000E+01
    -16.961  0.0000E+00  0.0000E+00  0.9000E+01  0.9000E+01
    -16.696  0.0000E+00  0.0000E+00  0.9000E+01  0.9000E+01
    -16.431  0.0000E+00  0.0000E+00  0.9000E+01  0.9000E+01
    -16.167  0.0000E+00  0.0000E+00  0.9000E+01  0.9000E+01
    -15.902  0.0000E+00  0.0000E+00  0.9000E+01  0.9000E+01
    -15.637  0.0000E+00  0.0000E+00  0.9000E+01  0.9000E+01
    -15.373  0.0000E+00  0.0000E+00  0.9000E+01  0.9000E+01
    -15.108  0.0000E+00  0.0000E+00  0.9000E+01  0.9000E+01
    -14.844  0.0000E+00  0.0000E+00  0.9000E+01  0.9000E+01
    -14.579  0.0000E+00  0.0000E+00  0.9000E+01  0.9000E+01
    -14.314  0.0000E+00  0.0000E+00  0.9000E+01  0.9000E+01
    -14.050  0.0000E+00  0.0000E+00  0.9000E+01  0.9000E+01
    -13.785  0.0000E+00  0.0000E+00  0.9000E+01  0.9000E+01
    -13.521  0.0000E+00  0.0000E+00  0.9000E+01  0.9000E+01
    -13.256  0.0000E+00  0.0000E+00  0.9000E+01  0.9000E+01
    -12.991  0.0000E+00  0.0000E+00  0.9000E+01  0.9000E+01
    -12.727  0.0000E+00  0.0000E+00  0.9000E+01  0.9000E+01
    -12.462  0.0000E+00  0.0000E+00  0.9000E+01  0.9000E+01
    -12.198  0.0000E+00  0.0000E+00  0.9000E+01  0.9000E+01
    -11.933  0.0000E+00  0.0000E+00  0.9000E+01  0.9000E+01
    -11.668  0.0000E+00  0.0000E+00  0.9000E+01  0.9000E+01
    -11.404  0.0000E+00  0.0000E+00  0.9000E+01  0.9000E+01
    -11.139  0.0000E+00  0.0000E+00  0.9000E+01  0.9000E+01
    -10.875  0.0000E+00  0.0000E+00  0.9000E+01  0.9000E+01
    -10.610  0.0000E+00  0.0000E+00  0.9000E+01  0.9000E+01
    -10.345  0.0000E+00  0.0000E+00  0.9000E+01  0.9000E+01
    -10.081  0.0000E+00  0.0000E+00  0.9000E+01  0.9000E+01
     -9.816  0.0000E+00  0.0000E+00  0.9000E+01  0.9000E+01
     -9.552  0.0000E+00  0.0000E+00  0.9000E+01  0.9000E+01
     -9.287  0.0000E+00  0.0000E+00  0.9000E+01  0.9000E+01
     -9.022  0.0000E+00  0.0000E+00  0.9000E+01  0.9000E+01
     -8.758  0.0000E+00  0.0000E+00  0.9000E+01  0.9000E+01
     -8.493  0.0000E+00  0.0000E+00  0.9000E+01  0.9000E+01
     -8.229  0.0000E+00  0.0000E+00  0.9000E+01  0.9000E+01
     -7.964  0.0000E+00  0.0000E+00  0.9000E+01  0.9000E+01
     -7.699  0.0000E+00  0.0000E+00  0.9000E+01  0.9000E+01
     -7.435  0.0000E+00  0.0000E+00  0.9000E+01  0.9000E+01
     -7.170  0.0000E+00  0.0000E+00  0.9000E+01  0.9000E+01
     -6.906  0.0000E+00  0.0000E+00  0.9000E+01  0.9000E+01
     -6.641  0.0000E+00  0.0000E+00  0.9000E+01  0.9000E+01
     -6.376  0.0000E+00  0.0000E+00  0.9000E+01  0.9000E+01
     -6.112  0.0000E+00  0.0000E+00  0.9000E+01  0.9000E+01
     -5.847  0.0000E+00  0.0000E+00  0.9000E+01  0.9000E+01
     -5.583  0.0000E+00  0.0000E+00  0.9000E+01  0.9000E+01
     -5.318  0.0000E+00  0.0000E+00  0.9000E+01  0.9000E+01
     -5.053  0.0000E+00  0.0000E+00  0.9000E+01  0.9000E+01
     -4.789  0.0000E+00  0.0000E+00  0.9000E+01  0.9000E+01
     -4.524  0.0000E+00  0.0000E+00  0.9000E+01  0.9000E+01
     -4.259  0.0000E+00  0.0000E+00  0.9000E+01  0.9000E+01
     -3.995  0.0000E+00  0.0000E+00  0.9000E+01  0.9000E+01
     -3.730  0.0000E+00  0.0000E+00  0.9000E+01  0.9000E+01
     -3.466  0.0000E+00  0.0000E+00  0.9000E+01  0.9000E+01
     -3.201  0.0000E+00  0.0000E+00  0.9000E+01  0.9000E+01
     -2.936  0.0000E+00  0.0000E+00  0.9000E+01  0.9000E+01
     -2.672  0.0000E+00  0.0000E+00  0.9000E+01  0.9000E+01
     -2.407  0.0000E+00  0.0000E+00  0.9000E+01  0.9000E+01
     -2.143  0.7958E-01  0.7958E-01  0.9005E+01  0.9005E+01
     -1.878  0.1864E+00  0.1864E+00  0.9046E+01  0.9046E+01
     -1.613  0.2616E+00  0.2616E+00  0.9104E+01  0.9104E+01
     -1.349  0.3268E+00  0.3268E+00  0.9183E+01  0.9183E+01
     -1.084  0.3943E+00  0.3943E+00  0.9278E+01  0.9278E+01
     -0.820  0.5196E+00  0.5196E+00  0.9397E+01  0.9397E+01
     -0.555  0.5331E+00  0.5331E+00  0.9549E+01  0.9549E+01
     -0.290  0.6384E+00  0.6384E+00  0.9692E+01  0.9692E+01
     -0.026  0.4085E+00  0.4085E+00  0.9825E+01  0.9825E+01
      0.239  0.3185E+00  0.3185E+00  0.9919E+01  0.9919E+01
      0.503  0.3320E+00  0.3320E+00  0.1000E+02  0.1000E+02
      0.768  0.4831E+00  0.4831E+00  0.1011E+02  0.1011E+02
      1.033  0.8631E+00  0.8631E+00  0.1032E+02  0.1032E+02
      1.297  0.7008E+00  0.7008E+00  0.1051E+02  0.1051E+02
      1.562  0.7027E+00  0.7027E+00  0.1070E+02  0.1070E+02
      1.826  0.8141E+00  0.8141E+00  0.1089E+02  0.1089E+02
      2.091  0.1118E+01  0.1118E+01  0.1118E+02  0.1118E+02
      2.356  0.7213E+00  0.7213E+00  0.1140E+02  0.1140E+02
      2.620  0.7867E+00  0.7867E+00  0.1160E+02  0.1160E+02
      2.885  0.9309E+00  0.9309E+00  0.1185E+02  0.1185E+02
      3.149  0.9051E+00  0.9051E+00  0.1207E+02  0.1207E+02
      3.414  0.9819E+00  0.9819E+00  0.1233E+02  0.1233E+02
      3.679  0.1478E+01  0.1478E+01  0.1266E+02  0.1266E+02
      3.943  0.1701E+01  0.1701E+01  0.1320E+02  0.1320E+02
      4.208  0.8868E+00  0.8868E+00  0.1345E+02  0.1345E+02
      4.472  0.1208E+01  0.1208E+01  0.1371E+02  0.1371E+02
      4.737  0.1883E+01  0.1883E+01  0.1414E+02  0.1414E+02
      5.002  0.1985E+01  0.1985E+01  0.1473E+02  0.1473E+02
      5.266  0.3063E+01  0.3063E+01  0.1532E+02  0.1532E+02
      5.531  0.2476E+01  0.2476E+01  0.1606E+02  0.1606E+02
      5.795  0.9476E+01  0.9476E+01  0.1737E+02  0.1737E+02
      6.060  0.1265E+02  0.1265E+02  0.1980E+02  0.1980E+02
      6.325  0.5879E+01  0.5879E+01  0.2198E+02  0.2198E+02
      6.589  0.1167E+02  0.1167E+02  0.2376E+02  0.2376E+02
      6.854  0.4107E+01  0.4107E+01  0.2544E+02  0.2544E+02
      7.118  0.1998E+01  0.1998E+01  0.2709E+02  0.2709E+02
      7.383  0.1579E+01  0.1579E+01  0.2798E+02  0.2798E+02
      7.648  0.1748E+01  0.1748E+01  0.2841E+02  0.2841E+02
      7.912  0.1669E+01  0.1669E+01  0.2885E+02  0.2885E+02
      8.177  0.1884E+01  0.1884E+01  0.2929E+02  0.2929E+02
      8.442  0.1476E+01  0.1476E+01  0.2975E+02  0.2975E+02
      8.706  0.1254E+01  0.1254E+01  0.3008E+02  0.3008E+02
      8.971  0.1201E+01  0.1201E+01  0.3043E+02  0.3043E+02
      9.235  0.9809E+00  0.9809E+00  0.3072E+02  0.3072E+02
      9.500  0.1055E+01  0.1055E+01  0.3096E+02  0.3096E+02
      9.765  0.1754E+01  0.1754E+01  0.3133E+02  0.3133E+02
     10.029  0.1322E+01  0.1322E+01  0.3176E+02  0.3176E+02
     10.294  0.1156E+01  0.1156E+01  0.3209E+02  0.3209E+02
     10.558  0.9531E+00  0.9531E+00  0.3237E+02  0.3237E+02
     10.823  0.1064E+01  0.1064E+01  0.3262E+02  0.3262E+02
     11.088  0.1448E+01  0.1448E+01  0.3294E+02  0.3294E+02
     11.352  0.1547E+01  0.1547E+01  0.3344E+02  0.3344E+02
     11.617  0.1194E+01  0.1194E+01  0.3378E+02  0.3378E+02
     11.881  0.1165E+01  0.1165E+01  0.3409E+02  0.3409E+02
     12.146  0.1430E+01  0.1430E+01  0.3445E+02  0.3445E+02
     12.411  0.1186E+01  0.1186E+01  0.3480E+02  0.3480E+02
     12.675  0.1483E+01  0.1483E+01  0.3518E+02  0.3518E+02
     12.940  0.1123E+01  0.1123E+01  0.3552E+02  0.3552E+02
     13.204  0.1160E+01  0.1160E+01  0.3581E+02  0.3581E+02
     13.469  0.1281E+01  0.1281E+01  0.3613E+02  0.3613E+02
     13.734  0.1573E+01  0.1573E+01  0.3650E+02  0.3650E+02
     13.998  0.1755E+01  0.1755E+01  0.3693E+02  0.3693E+02
     14.263  0.1828E+01  0.1828E+01  0.3741E+02  0.3741E+02
     14.527  0.1613E+01  0.1613E+01  0.3791E+02  0.3791E+02
     14.792  0.1292E+01  0.1292E+01  0.3830E+02  0.3830E+02
     15.057  0.1076E+01  0.1076E+01  0.3862E+02  0.3862E+02
     15.321  0.1285E+01  0.1285E+01  0.3893E+02  0.3893E+02
     15.586  0.8993E+00  0.8993E+00  0.3921E+02  0.3921E+02
     15.850  0.8094E+00  0.8094E+00  0.3944E+02  0.3944E+02
     16.115  0.7565E+00  0.7565E+00  0.3963E+02  0.3963E+02
     16.380  0.5433E+00  0.5433E+00  0.3983E+02  0.3983E+02
     16.644  0.3155E+00  0.3155E+00  0.3995E+02  0.3995E+02
     16.909  0.6026E-01  0.6026E-01  0.4000E+02  0.4000E+02
     17.173  0.0000E+00  0.0000E+00  0.4000E+02  0.4000E+02
     17.438  0.0000E+00  0.0000E+00  0.4000E+02  0.4000E+02
     17.703  0.0000E+00  0.0000E+00  0.4000E+02  0.4000E+02
     17.967  0.0000E+00  0.0000E+00  0.4000E+02  0.4000E+02
     18.232  0.0000E+00  0.0000E+00  0.4000E+02  0.4000E+02
     18.496  0.0000E+00  0.0000E+00  0.4000E+02  0.4000E+02
     18.761  0.0000E+00  0.0000E+00  0.4000E+02  0.4000E+02
     19.026  0.0000E+00  0.0000E+00  0.4000E+02  0.4000E+02
     19.290  0.0000E+00  0.0000E+00  0.4000E+02  0.4000E+02
     19.555  0.0000E+00  0.0000E+00  0.4000E+02  0.4000E+02
     19.820  0.0000E+00  0.0000E+00  0.4000E+02  0.4000E+02
     20.084  0.0000E+00  0.0000E+00  0.4000E+02  0.4000E+02
     20.349  0.0000E+00  0.0000E+00  0.4000E+02  0.4000E+02
     20.613  0.0000E+00  0.0000E+00  0.4000E+02  0.4000E+02
