       N       E                     dE             d eps       ncg     rms          rms(c)
DAV:   1     0.632660434334E+03    0.63266E+03   -0.34009E+04  7960   0.158E+03
DAV:   2     0.179309953542E+01   -0.63087E+03   -0.60232E+03  6568   0.505E+02
DAV:   3    -0.373273659035E+02   -0.39120E+02   -0.36610E+02  7672   0.139E+02
DAV:   4    -0.384868131520E+02   -0.11594E+01   -0.11557E+01  7200   0.237E+01
DAV:   5    -0.385184539535E+02   -0.31641E-01   -0.31636E-01  8032   0.415E+00    0.278E+01
DAV:   6    -0.557148374319E+02   -0.17196E+02   -0.17179E+02  7256   0.158E+02    0.374E+01
DAV:   7    -0.340722909961E+02    0.21643E+02   -0.55045E+01  7096   0.102E+02    0.713E+00
DAV:   8    -0.337609820998E+02    0.31131E+00   -0.57523E+00  8872   0.201E+01    0.265E+00
DAV:   9    -0.337053693012E+02    0.55613E-01   -0.51438E-01  7456   0.811E+00    0.113E+00
DAV:  10    -0.336913344584E+02    0.14035E-01   -0.35134E-02  7632   0.229E+00    0.450E-01
DAV:  11    -0.336928215602E+02   -0.14871E-02   -0.79615E-03  9080   0.827E-01    0.217E-01
DAV:  12    -0.336924509640E+02    0.37060E-03   -0.81475E-04  8024   0.278E-01    0.130E-01
DAV:  13    -0.336922403386E+02    0.21063E-03   -0.52725E-04  9336   0.222E-01    0.199E-02
DAV:  14    -0.336922430081E+02   -0.26695E-05   -0.59340E-05  9048   0.620E-02    0.133E-02
DAV:  15    -0.336922408446E+02    0.21635E-05   -0.27451E-06  8264   0.156E-02    0.762E-03
DAV:  16    -0.336922398650E+02    0.97964E-06   -0.16732E-06  9208   0.131E-02    0.147E-03
DAV:  17    -0.336922398034E+02    0.61593E-07   -0.13476E-07  7704   0.271E-03    0.463E-04
DAV:  18    -0.336922397849E+02    0.18515E-07   -0.66143E-09  3936   0.891E-04    0.212E-04
DAV:  19    -0.336922397855E+02   -0.57844E-09   -0.16669E-09  3592   0.340E-04
   1 F= -.33692240E+02 E0= -.33692391E+02  d E =-.336922E+02  mag=     0.0000
       N       E                     dE             d eps       ncg     rms          rms(c)
DAV:   1    -0.198635927362E+03   -0.16494E+03   -0.23833E+03  6416   0.681E+02    0.955E+01
DAV:   2    -0.733410915547E+02    0.12529E+03   -0.97261E+02  7232   0.262E+02    0.552E+01
DAV:   3    -0.650670345094E+02    0.82741E+01   -0.36187E+02  7024   0.187E+02    0.460E+01
DAV:   4    -0.355945798444E+02    0.29472E+02   -0.93970E+01  7168   0.111E+02    0.454E+00
DAV:   5    -0.355305411101E+02    0.64039E-01   -0.76789E+00  7136   0.275E+01    0.110E+01
DAV:   6    -0.344329189145E+02    0.10976E+01   -0.36201E+00  8944   0.192E+01    0.245E+00
DAV:   7    -0.343407387660E+02    0.92180E-01   -0.35181E-01  8368   0.486E+00    0.234E-01
DAV:   8    -0.343415493367E+02   -0.81057E-03   -0.11526E-02  8048   0.681E-01    0.162E-01
DAV:   9    -0.343414145537E+02    0.13478E-03   -0.16065E-03  9072   0.456E-01    0.661E-02
DAV:  10    -0.343413969910E+02    0.17563E-04   -0.21473E-04  7808   0.145E-01    0.799E-03
DAV:  11    -0.343413947387E+02    0.22523E-05   -0.11089E-05  7472   0.446E-02    0.386E-03
DAV:  12    -0.343413953728E+02   -0.63409E-06   -0.14241E-06  8192   0.106E-02    0.867E-04
DAV:  13    -0.343413952392E+02    0.13360E-06   -0.12658E-07  6928   0.221E-03    0.149E-03
DAV:  14    -0.343413951194E+02    0.11984E-06   -0.59793E-08  6496   0.279E-03    0.306E-04
DAV:  15    -0.343413950904E+02    0.29046E-07   -0.30377E-09  4136   0.575E-04    0.165E-04
DAV:  16    -0.343413950603E+02    0.30081E-07   -0.14933E-09  3912   0.257E-04    0.732E-05
DAV:  17    -0.343413950587E+02    0.15425E-08   -0.82011E-10  3648   0.312E-04
   2 F= -.34341395E+02 E0= -.34341603E+02  d E =-.649155E+00  mag=    -0.0000
       N       E                     dE             d eps       ncg     rms          rms(c)
DAV:   1    -0.996970646725E+02   -0.65356E+02   -0.55182E+02  7104   0.264E+02    0.860E+01
DAV:   2    -0.181937762913E+03   -0.82241E+02   -0.14407E+03  6880   0.432E+02    0.731E+01
DAV:   3    -0.520611631432E+02    0.12988E+03   -0.43701E+02  7088   0.189E+02    0.269E+01
DAV:   4    -0.506382605343E+02    0.14229E+01   -0.72549E+00  6960   0.193E+01    0.262E+01
DAV:   5    -0.446251716632E+02    0.60131E+01   -0.25443E+00  7520   0.194E+01    0.203E+01
DAV:   6    -0.421735639000E+02    0.24516E+01   -0.91198E+01  8912   0.921E+01    0.296E+01
DAV:   7    -0.364066456260E+02    0.57669E+01   -0.99154E+00  8464   0.271E+01    0.127E+01
DAV:   8    -0.352950447089E+02    0.11116E+01   -0.21214E+00  9120   0.124E+01    0.482E+00
DAV:   9    -0.353715349055E+02   -0.76490E-01   -0.93406E-02  8176   0.269E+00    0.574E+00
DAV:  10    -0.350922552503E+02    0.27928E+00   -0.63688E-01  7232   0.864E+00    0.120E+00
DAV:  11    -0.350918773018E+02    0.37795E-03   -0.28639E-02  7280   0.106E+00    0.942E-01
DAV:  12    -0.350845112763E+02    0.73660E-02   -0.16033E-02  7648   0.133E+00    0.224E-01
DAV:  13    -0.350840015771E+02    0.50970E-03   -0.20134E-03  9360   0.330E-01    0.324E-02
DAV:  14    -0.350840116445E+02   -0.10067E-04   -0.10588E-04  7872   0.748E-02    0.219E-02
DAV:  15    -0.350840121546E+02   -0.51007E-06   -0.14990E-05  7072   0.262E-02    0.252E-02
DAV:  16    -0.350840046772E+02    0.74774E-05   -0.14917E-05  8528   0.409E-02    0.211E-03
DAV:  17    -0.350840045305E+02    0.14671E-06   -0.17342E-06  9312   0.966E-03    0.403E-03
DAV:  18    -0.350840046374E+02   -0.10694E-06   -0.94624E-07  7376   0.106E-02    0.134E-03
DAV:  19    -0.350840045962E+02    0.41242E-07   -0.40416E-08  6288   0.210E-03    0.623E-04
DAV:  20    -0.350840045672E+02    0.28962E-07   -0.95247E-09  3672   0.105E-03    0.123E-04
DAV:  21    -0.350840045659E+02    0.13279E-08   -0.15837E-09  3504   0.319E-04
   3 F= -.35084005E+02 E0= -.35084036E+02  d E =-.139176E+01  mag=    -0.0000
       N       E                     dE             d eps       ncg     rms          rms(c)
DAV:   1    -0.351049606932E+02   -0.20956E-01   -0.16593E-01  6752   0.514E+00    0.157E+00
DAV:   2    -0.351753834114E+02   -0.70423E-01   -0.58410E-01  7296   0.855E+00    0.291E+00
DAV:   3    -0.350840859708E+02    0.91297E-01   -0.27338E-01  7248   0.608E+00    0.147E-01
DAV:   4    -0.350844141935E+02   -0.32822E-03   -0.69687E-03  6672   0.441E-01    0.131E-01
DAV:   5    -0.350842734826E+02    0.14071E-03   -0.44208E-04  8208   0.225E-01    0.152E-02
DAV:   6    -0.350842703569E+02    0.31257E-05   -0.14360E-05  6864   0.286E-02    0.157E-03
DAV:   7    -0.350842699831E+02    0.37378E-06   -0.47424E-07  7472   0.547E-03    0.570E-04
DAV:   8    -0.350842697384E+02    0.24473E-06   -0.44202E-08  6480   0.175E-03    0.595E-04
DAV:   9    -0.350842696738E+02    0.64572E-07   -0.59798E-09  4448   0.893E-04    0.140E-04
DAV:  10    -0.350842696424E+02    0.31445E-07   -0.21939E-09  3960   0.294E-04    0.220E-05
DAV:  11    -0.350842696438E+02   -0.14352E-08   -0.31912E-10  3680   0.174E-04
   4 F= -.35084270E+02 E0= -.35084294E+02  d E =-.139203E+01  mag=    -0.0000
       N       E                     dE             d eps       ncg     rms          rms(c)
DAV:   1    -0.347806080726E+02    0.30366E+00   -0.98865E+00  7200   0.118E+02    0.339E+00
DAV:   2    -0.354563317895E+02   -0.67572E+00   -0.63034E+00  7344   0.236E+01    0.475E+00
DAV:   3    -0.351954777146E+02    0.26085E+00   -0.10626E+00  7216   0.129E+01    0.105E+00
DAV:   4    -0.351905529483E+02    0.49248E-02   -0.34795E-02  7712   0.168E+00    0.620E-01
DAV:   5    -0.351868127082E+02    0.37402E-02   -0.10051E-02  7712   0.117E+00    0.125E-01
DAV:   6    -0.351867458173E+02    0.66891E-04   -0.70103E-04  7472   0.211E-01    0.679E-02
DAV:   7    -0.351867237069E+02    0.22110E-04   -0.78129E-05  8144   0.732E-02    0.930E-03
DAV:   8    -0.351867238332E+02   -0.12627E-06   -0.95033E-06  7336   0.232E-02    0.102E-02
DAV:   9    -0.351867227895E+02    0.10437E-05   -0.40637E-06  7384   0.268E-02    0.631E-04
DAV:  10    -0.351867227609E+02    0.28558E-07   -0.22022E-07  7168   0.541E-03    0.305E-04
DAV:  11    -0.351867227550E+02    0.58790E-08   -0.91221E-09  4704   0.111E-03
   5 F= -.35186723E+02 E0= -.35187020E+02  d E =-.102453E+00  mag=     0.0000
       N       E                     dE             d eps       ncg     rms          rms(c)
DAV:   1    -0.338957292319E+02    0.12910E+01   -0.47875E+01  8800   0.248E+02    0.799E+00
DAV:   2    -0.370005228656E+02   -0.31048E+01   -0.28566E+01  7840   0.534E+01    0.116E+01
DAV:   3    -0.352825436576E+02    0.17180E+01   -0.53509E+00  7152   0.301E+01    0.124E+00
DAV:   4    -0.352833394615E+02   -0.79580E-03   -0.17914E-01  7680   0.270E+00    0.931E-01
DAV:   5    -0.352759089375E+02    0.74305E-02   -0.35056E-02  7712   0.218E+00    0.338E-01
DAV:   6    -0.352745789394E+02    0.13300E-02   -0.51996E-03  7664   0.789E-01    0.107E-01
DAV:   7    -0.352745285122E+02    0.50427E-04   -0.41149E-04  7728   0.140E-01    0.361E-02
DAV:   8    -0.352745120327E+02    0.16479E-04   -0.83131E-05  8304   0.924E-02    0.828E-03
DAV:   9    -0.352745105572E+02    0.14755E-05   -0.86603E-06  7904   0.389E-02    0.413E-03
DAV:  10    -0.352745102658E+02    0.29142E-06   -0.12651E-06  7576   0.132E-02    0.199E-03
DAV:  11    -0.352745101574E+02    0.10832E-06   -0.15528E-07  7168   0.538E-03    0.226E-04
DAV:  12    -0.352745101374E+02    0.20058E-07   -0.96024E-09  4336   0.101E-03    0.868E-05
DAV:  13    -0.352745101318E+02    0.55570E-08   -0.18227E-09  3768   0.474E-04
   6 F= -.35274510E+02 E0= -.35274703E+02  d E =-.190240E+00  mag=    -0.0000
       N       E                     dE             d eps       ncg     rms          rms(c)
DAV:   1    -0.360505524405E+02   -0.77604E+00   -0.41865E+01  6624   0.195E+02    0.145E+01
DAV:   2    -0.411410692455E+02   -0.50905E+01   -0.57579E+01  7296   0.826E+01    0.246E+01
DAV:   3    -0.354295774224E+02    0.57115E+01   -0.22759E+01  7600   0.514E+01    0.463E+00
DAV:   4    -0.353208575085E+02    0.10872E+00   -0.88852E-01  7664   0.987E+00    0.153E+00
DAV:   5    -0.353005813662E+02    0.20276E-01   -0.32231E-02  9920   0.195E+00    0.499E-01
DAV:   6    -0.352983181171E+02    0.22632E-02   -0.43146E-03  9360   0.725E-01    0.532E-02
DAV:   7    -0.352983432555E+02   -0.25138E-04   -0.53736E-04  7248   0.350E-01    0.269E-02
DAV:   8    -0.352983490330E+02   -0.57775E-05   -0.43106E-05  8472   0.641E-02    0.613E-03
DAV:   9    -0.352983489903E+02    0.42704E-07   -0.19069E-06  7696   0.260E-02    0.295E-03
DAV:  10    -0.352983492927E+02   -0.30238E-06   -0.28858E-07  7880   0.476E-03    0.116E-03
DAV:  11    -0.352983492983E+02   -0.56243E-08   -0.99300E-08  7672   0.340E-03
   7 F= -.35298349E+02 E0= -.35298407E+02  d E =-.238392E-01  mag=    -0.0000
       N       E                     dE             d eps       ncg     rms          rms(c)
DAV:   1    -0.353470365219E+02   -0.48687E-01   -0.18722E+00  7136   0.434E+01    0.355E+00
DAV:   2    -0.356940229164E+02   -0.34699E+00   -0.29000E+00  7248   0.198E+01    0.581E+00
DAV:   3    -0.353012804632E+02    0.39274E+00   -0.12118E+00  7200   0.137E+01    0.563E-01
DAV:   4    -0.353018620386E+02   -0.58158E-03   -0.32516E-02  7328   0.119E+00    0.403E-01
DAV:   5    -0.353005503409E+02    0.13117E-02   -0.57349E-03  7648   0.837E-01    0.121E-01
DAV:   6    -0.353003522059E+02    0.19813E-03   -0.48644E-04  7424   0.239E-01    0.335E-02
DAV:   7    -0.353003319540E+02    0.20252E-04   -0.84474E-05  7360   0.661E-02    0.431E-03
DAV:   8    -0.353003316477E+02    0.30635E-06   -0.46160E-06  7232   0.178E-02    0.205E-03
DAV:   9    -0.353003314894E+02    0.15830E-06   -0.42280E-07  7840   0.694E-03    0.406E-04
DAV:  10    -0.353003314357E+02    0.53713E-07   -0.44584E-08  6672   0.203E-03    0.330E-04
DAV:  11    -0.353003314196E+02    0.16082E-07   -0.73967E-09  4048   0.112E-03    0.107E-04
DAV:  12    -0.353003314140E+02    0.55679E-08   -0.13096E-09  3872   0.416E-04
   8 F= -.35300331E+02 E0= -.35300419E+02  d E =-.258213E-01  mag=    -0.0000
       N       E                     dE             d eps       ncg     rms          rms(c)
DAV:   1    -0.349368407006E+02    0.36349E+00   -0.10546E+01  9216   0.120E+02    0.317E+00
DAV:   2    -0.355683204943E+02   -0.63148E+00   -0.59279E+00  7168   0.231E+01    0.475E+00
DAV:   3    -0.353142546269E+02    0.25407E+00   -0.95262E-01  7168   0.126E+01    0.777E-01
DAV:   4    -0.353129531238E+02    0.13015E-02   -0.29664E-02  7360   0.141E+00    0.525E-01
DAV:   5    -0.353102846219E+02    0.26685E-02   -0.69740E-03  7648   0.115E+00    0.109E-01
DAV:   6    -0.353101644096E+02    0.12021E-03   -0.78166E-04  8320   0.264E-01    0.297E-02
DAV:   7    -0.353101564912E+02    0.79184E-05   -0.79019E-05  7272   0.120E-01    0.139E-02
DAV:   8    -0.353101546293E+02    0.18619E-05   -0.93567E-06  7368   0.381E-02    0.338E-03
DAV:   9    -0.353101543169E+02    0.31238E-06   -0.11619E-06  8600   0.125E-02    0.184E-03
DAV:  10    -0.353101542111E+02    0.10582E-06   -0.23062E-07  7352   0.559E-03    0.822E-04
DAV:  11    -0.353101542012E+02    0.98280E-08   -0.24307E-08  4928   0.221E-03
   9 F= -.35310154E+02 E0= -.35310181E+02  d E =-.982279E-02  mag=    -0.0000
       N       E                     dE             d eps       ncg     rms          rms(c)
DAV:   1    -0.352779938677E+02    0.32160E-01   -0.75528E-01  8064   0.330E+01    0.791E-01
DAV:   2    -0.353239800795E+02   -0.45986E-01   -0.44337E-01  7184   0.599E+00    0.110E+00
DAV:   3    -0.353113253131E+02    0.12655E-01   -0.59784E-02  7184   0.313E+00    0.289E-01
DAV:   4    -0.353109537782E+02    0.37153E-03   -0.19335E-03  7696   0.431E-01    0.181E-01
DAV:   5    -0.353106323859E+02    0.32139E-03   -0.79876E-04  7632   0.375E-01    0.273E-02
DAV:   6    -0.353106279135E+02    0.44724E-05   -0.64640E-05  7840   0.664E-02    0.906E-03
DAV:   7    -0.353106272993E+02    0.61423E-06   -0.73463E-06  7552   0.375E-02    0.614E-03
DAV:   8    -0.353106268637E+02    0.43560E-06   -0.13878E-06  7424   0.160E-02    0.130E-03
DAV:   9    -0.353106268088E+02    0.54919E-07   -0.97324E-08  7424   0.356E-03    0.510E-04
DAV:  10    -0.353106268004E+02    0.83455E-08   -0.17648E-08  4192   0.153E-03
  10 F= -.35310627E+02 E0= -.35310638E+02  d E =-.102954E-01  mag=     0.0000
       N       E                     dE             d eps       ncg     rms          rms(c)
DAV:   1    -0.352909336625E+02    0.19693E-01   -0.58890E-01  7552   0.265E+01    0.868E-01
DAV:   2    -0.353265708429E+02   -0.35637E-01   -0.37854E-01  7184   0.583E+00    0.108E+00
DAV:   3    -0.353149055769E+02    0.11665E-01   -0.51385E-02  7168   0.286E+00    0.375E-01
DAV:   4    -0.353132590406E+02    0.16465E-02   -0.43067E-03  7584   0.798E-01    0.108E-01
DAV:   5    -0.353130854565E+02    0.17358E-03   -0.60840E-04  8336   0.214E-01    0.196E-02
DAV:   6    -0.353130855642E+02   -0.10762E-06   -0.82284E-05  7104   0.983E-02    0.113E-02
DAV:   7    -0.353130856894E+02   -0.12525E-06   -0.57067E-06  8160   0.224E-02    0.324E-03
DAV:   8    -0.353130860009E+02   -0.31151E-06   -0.43643E-07  7664   0.768E-03    0.572E-04
DAV:   9    -0.353130860523E+02   -0.51366E-07   -0.21402E-08  5184   0.170E-03    0.193E-04
DAV:  10    -0.353130860817E+02   -0.29386E-07   -0.34410E-09  3920   0.523E-04    0.781E-05
DAV:  11    -0.353130860872E+02   -0.55716E-08   -0.76144E-10  3840   0.301E-04
  11 F= -.35313086E+02 E0= -.35313147E+02  d E =-.245929E-02  mag=    -0.0000
       N       E                     dE             d eps       ncg     rms          rms(c)
DAV:   1    -0.352773941482E+02    0.35692E-01   -0.97445E-01  7536   0.341E+01    0.111E+00
DAV:   2    -0.353361719274E+02   -0.58778E-01   -0.62556E-01  7200   0.745E+00    0.138E+00
DAV:   3    -0.353172904493E+02    0.18881E-01   -0.83874E-02  7152   0.364E+00    0.484E-01
DAV:   4    -0.353145573904E+02    0.27331E-02   -0.71647E-03  7568   0.103E+00    0.140E-01
DAV:   5    -0.353142685364E+02    0.28885E-03   -0.10101E-03  8352   0.277E-01    0.253E-02
DAV:   6    -0.353142688564E+02   -0.32002E-06   -0.13705E-04  7136   0.127E-01    0.148E-02
DAV:   7    -0.353142689511E+02   -0.94744E-07   -0.96225E-06  8208   0.294E-02    0.417E-03
DAV:   8    -0.353142694079E+02   -0.45674E-06   -0.71698E-07  7696   0.991E-03    0.735E-04
DAV:   9    -0.353142694736E+02   -0.65746E-07   -0.36692E-08  5944   0.223E-03    0.259E-04
DAV:  10    -0.353142695096E+02   -0.36014E-07   -0.45120E-09  4016   0.603E-04    0.936E-05
DAV:  11    -0.353142695221E+02   -0.12447E-07   -0.10201E-09  3808   0.341E-04    0.205E-05
DAV:  12    -0.353142695262E+02   -0.41309E-08   -0.30398E-10  3600   0.178E-04
  12 F= -.35314270E+02 E0= -.35314422E+02  d E =-.364273E-02  mag=    -0.0000
       N       E                     dE             d eps       ncg     rms          rms(c)
DAV:   1    -0.352808878349E+02    0.33382E-01   -0.88709E-01  8304   0.348E+01    0.937E-01
DAV:   2    -0.353348219655E+02   -0.53934E-01   -0.53146E-01  7168   0.676E+00    0.126E+00
DAV:   3    -0.353175921890E+02    0.17230E-01   -0.74360E-02  7184   0.352E+00    0.338E-01
DAV:   4    -0.353167660080E+02    0.82618E-03   -0.30384E-03  7288   0.608E-01    0.151E-01
DAV:   5    -0.353164736481E+02    0.29236E-03   -0.64747E-04  8184   0.287E-01    0.213E-02
DAV:   6    -0.353164767647E+02   -0.31166E-05   -0.99130E-05  7176   0.971E-02    0.111E-02
DAV:   7    -0.353164765493E+02    0.21538E-06   -0.36968E-06  8880   0.202E-02    0.416E-03
DAV:   8    -0.353164763995E+02    0.14984E-06   -0.31858E-07  7088   0.453E-03    0.440E-04
DAV:   9    -0.353164763639E+02    0.35558E-07   -0.30807E-08  5832   0.188E-03    0.398E-04
DAV:  10    -0.353164763504E+02    0.13524E-07   -0.81316E-09  3984   0.112E-03    0.542E-05
DAV:  11    -0.353164763488E+02    0.15698E-08   -0.14634E-09  3856   0.445E-04
  13 F= -.35316476E+02 E0= -.35316656E+02  d E =-.220682E-02  mag=     0.0000
       N       E                     dE             d eps       ncg     rms          rms(c)
DAV:   1    -0.350372504368E+02    0.27923E+00   -0.82723E+00  9312   0.104E+02    0.306E+00
DAV:   2    -0.355482541405E+02   -0.51100E+00   -0.49391E+00  7152   0.213E+01    0.443E+00
DAV:   3    -0.353259879030E+02    0.22227E+00   -0.80081E-01  7136   0.116E+01    0.813E-01
DAV:   4    -0.353213242462E+02    0.46637E-02   -0.29028E-02  7712   0.159E+00    0.376E-01
DAV:   5    -0.353195652358E+02    0.17590E-02   -0.42310E-03  8416   0.694E-01    0.655E-02
DAV:   6    -0.353195766691E+02   -0.11433E-04   -0.76248E-04  7280   0.287E-01    0.423E-02
DAV:   7    -0.353195687757E+02    0.78934E-05   -0.55528E-05  7712   0.872E-02    0.958E-03
DAV:   8    -0.353195689260E+02   -0.15029E-06   -0.39952E-06  7280   0.191E-02    0.209E-03
DAV:   9    -0.353195687972E+02    0.12886E-06   -0.52801E-07  8112   0.848E-03    0.148E-03
DAV:  10    -0.353195687260E+02    0.71172E-07   -0.73174E-08  6688   0.317E-03    0.113E-04
DAV:  11    -0.353195687221E+02    0.38926E-08   -0.33442E-09  4024   0.542E-04
  14 F= -.35319569E+02 E0= -.35319757E+02  d E =-.529920E-02  mag=    -0.0000
       N       E                     dE             d eps       ncg     rms          rms(c)
DAV:   1    -0.353086455559E+02    0.10923E-01   -0.26073E-01  7616   0.195E+01    0.501E-01
DAV:   2    -0.353254866675E+02   -0.16841E-01   -0.16740E-01  7200   0.373E+00    0.656E-01
DAV:   3    -0.353209944364E+02    0.44922E-02   -0.21885E-02  7120   0.189E+00    0.201E-01
DAV:   4    -0.353207546885E+02    0.23975E-03   -0.83432E-04  7328   0.318E-01    0.106E-01
DAV:   5    -0.353206392180E+02    0.11547E-03   -0.30783E-04  7648   0.220E-01    0.147E-02
DAV:   6    -0.353206407609E+02   -0.15428E-05   -0.26343E-05  7216   0.476E-02    0.574E-03
DAV:   7    -0.353206410266E+02   -0.26575E-06   -0.20102E-06  7360   0.142E-02    0.338E-03
DAV:   8    -0.353206411245E+02   -0.97931E-07   -0.60677E-07  7488   0.912E-03    0.135E-03
DAV:   9    -0.353206411297E+02   -0.51441E-08   -0.62623E-08  6528   0.363E-03
  15 F= -.35320641E+02 E0= -.35320816E+02  d E =-.107241E-02  mag=     0.0000
       N       E                     dE             d eps       ncg     rms          rms(c)
DAV:   1    -0.352138322565E+02    0.10681E+00   -0.23496E+00  7488   0.582E+01    0.149E+00
DAV:   2    -0.353652792439E+02   -0.15145E+00   -0.15157E+00  7232   0.110E+01    0.194E+00
DAV:   3    -0.353265555467E+02    0.38724E-01   -0.19279E-01  7152   0.555E+00    0.622E-01
DAV:   4    -0.353242285505E+02    0.23270E-02   -0.76035E-03  7376   0.977E-01    0.324E-01
DAV:   5    -0.353231589649E+02    0.10696E-02   -0.28434E-03  7656   0.667E-01    0.452E-02
DAV:   6    -0.353231669420E+02   -0.79771E-05   -0.24113E-04  7200   0.143E-01    0.170E-02
DAV:   7    -0.353231678497E+02   -0.90768E-06   -0.17827E-05  7440   0.426E-02    0.104E-02
DAV:   8    -0.353231678533E+02   -0.35780E-08   -0.52511E-06  7400   0.268E-02    0.382E-03
DAV:   9    -0.353231677835E+02    0.69791E-07   -0.51044E-07  7504   0.101E-02    0.495E-04
DAV:  10    -0.353231678068E+02   -0.23389E-07   -0.26723E-08  5112   0.154E-03    0.107E-04
DAV:  11    -0.353231678091E+02   -0.22301E-08   -0.38354E-09  4144   0.628E-04
  16 F= -.35323168E+02 E0= -.35323300E+02  d E =-.359909E-02  mag=     0.0000
       N       E                     dE             d eps       ncg     rms          rms(c)
DAV:   1    -0.348798856354E+02    0.44328E+00   -0.94280E+00  7328   0.116E+02    0.292E+00
DAV:   2    -0.354833317091E+02   -0.60345E+00   -0.61078E+00  7200   0.216E+01    0.380E+00
DAV:   3    -0.353394901191E+02    0.14384E+00   -0.75003E-01  7168   0.108E+01    0.129E+00
DAV:   4    -0.353294137554E+02    0.10076E-01   -0.31532E-02  7504   0.201E+00    0.662E-01
DAV:   5    -0.353250641154E+02    0.43496E-02   -0.11524E-02  7648   0.135E+00    0.949E-02
DAV:   6    -0.353250931405E+02   -0.29025E-04   -0.99457E-04  7248   0.283E-01    0.333E-02
DAV:   7    -0.353250965531E+02   -0.34125E-05   -0.73540E-05  7456   0.914E-02    0.222E-02
DAV:   8    -0.353250952318E+02    0.13213E-05   -0.21014E-05  7432   0.544E-02    0.678E-03
DAV:   9    -0.353250949499E+02    0.28187E-06   -0.16838E-06  7520   0.181E-02    0.105E-03
DAV:  10    -0.353250949822E+02   -0.32247E-07   -0.11718E-07  8168   0.314E-03    0.236E-04
DAV:  11    -0.353250949784E+02    0.37544E-08   -0.42470E-09  4288   0.622E-04
  17 F= -.35325095E+02 E0= -.35325115E+02  d E =-.552626E-02  mag=     0.0000
       N       E                     dE             d eps       ncg     rms          rms(c)
DAV:   1    -0.352354734730E+02    0.89622E-01   -0.22953E+00  8352   0.557E+01    0.591E-01
DAV:   2    -0.353268237409E+02   -0.91350E-01   -0.93595E-01  6416   0.723E+00    0.420E-01
DAV:   3    -0.353275968742E+02   -0.77313E-03   -0.28881E-02  9344   0.192E+00    0.290E-01
DAV:   4    -0.353269117643E+02    0.68511E-03   -0.17872E-03  7776   0.527E-01    0.147E-01
DAV:   5    -0.353266292133E+02    0.28255E-03   -0.40391E-04  8960   0.369E-01    0.210E-02
DAV:   6    -0.353266384981E+02   -0.92848E-05   -0.13476E-04  7216   0.103E-01    0.732E-03
DAV:   7    -0.353266387524E+02   -0.25430E-06   -0.26017E-06  8512   0.242E-02    0.418E-03
DAV:   8    -0.353266387569E+02   -0.44292E-08   -0.45008E-07  7248   0.624E-03    0.681E-04
DAV:   9    -0.353266387455E+02    0.11345E-07   -0.26965E-08  5088   0.198E-03    0.289E-04
DAV:  10    -0.353266387348E+02    0.10730E-07   -0.54690E-09  3904   0.908E-04    0.596E-05
DAV:  11    -0.353266387291E+02    0.56607E-08   -0.13714E-09  3760   0.497E-04
  18 F= -.35326639E+02 E0= -.35326604E+02  d E =-.154375E-02  mag=     0.0000
       N       E                     dE             d eps       ncg     rms          rms(c)
DAV:   1    -0.344875928186E+02    0.83905E+00   -0.20460E+01  8336   0.166E+02    0.184E+00
DAV:   2    -0.353322349771E+02   -0.84464E+00   -0.86518E+00  6416   0.215E+01    0.134E+00
DAV:   3    -0.353395091170E+02   -0.72741E-02   -0.29902E-01  9440   0.599E+00    0.902E-01
DAV:   4    -0.353329544401E+02    0.65547E-02   -0.17374E-02  7712   0.162E+00    0.441E-01
DAV:   5    -0.353305862710E+02    0.23682E-02   -0.34032E-03  8256   0.103E+00    0.753E-02
DAV:   6    -0.353306587801E+02   -0.72509E-04   -0.11794E-03  7824   0.291E-01    0.229E-02
DAV:   7    -0.353306620772E+02   -0.32970E-05   -0.29609E-05  8448   0.943E-02    0.133E-02
DAV:   8    -0.353306636435E+02   -0.15664E-05   -0.50839E-06  7344   0.237E-02    0.204E-03
DAV:   9    -0.353306636603E+02   -0.16718E-07   -0.34749E-07  7648   0.681E-03    0.776E-04
DAV:  10    -0.353306636669E+02   -0.66102E-08   -0.17173E-08  4424   0.200E-03
  19 F= -.35330664E+02 E0= -.35330494E+02  d E =-.556869E-02  mag=    -0.0000
       N       E                     dE             d eps       ncg     rms          rms(c)
DAV:   1    -0.318705286260E+02    0.34601E+01   -0.81879E+01  8320   0.325E+02    0.381E+00
DAV:   2    -0.353765035595E+02   -0.35060E+01   -0.35811E+01  6400   0.448E+01    0.327E+00
DAV:   3    -0.353678528050E+02    0.86508E-02   -0.13797E+00  9104   0.129E+01    0.174E+00
DAV:   4    -0.353446973957E+02    0.23155E-01   -0.76720E-02  8240   0.317E+00    0.894E-01
DAV:   5    -0.353352231358E+02    0.94743E-02   -0.14398E-02  7800   0.195E+00    0.152E-01
DAV:   6    -0.353355147150E+02   -0.29158E-03   -0.43002E-03  8152   0.553E-01    0.479E-02
DAV:   7    -0.353355219247E+02   -0.72097E-05   -0.14192E-04  8240   0.223E-01    0.276E-02
DAV:   8    -0.353355273272E+02   -0.54026E-05   -0.22360E-05  7296   0.553E-02    0.362E-03
DAV:   9    -0.353355274396E+02   -0.11234E-06   -0.14182E-06  7744   0.130E-02    0.133E-03
DAV:  10    -0.353355274810E+02   -0.41449E-07   -0.71016E-08  7016   0.262E-03    0.465E-04
DAV:  11    -0.353355274911E+02   -0.10094E-07   -0.49162E-09  4432   0.980E-04    0.163E-04
DAV:  12    -0.353355274923E+02   -0.11696E-08   -0.12255E-09  3824   0.694E-04
  20 F= -.35335527E+02 E0= -.35335622E+02  d E =-.104325E-01  mag=    -0.0000
       N       E                     dE             d eps       ncg     rms          rms(c)
DAV:   1    -0.348143400389E+02    0.52119E+00   -0.12609E+01  8320   0.131E+02    0.145E+00
DAV:   2    -0.353367058956E+02   -0.52237E+00   -0.53570E+00  6400   0.168E+01    0.105E+00
DAV:   3    -0.353413571252E+02   -0.46512E-02   -0.18572E-01  9456   0.472E+00    0.706E-01
DAV:   4    -0.353373409390E+02    0.40162E-02   -0.10636E-02  7808   0.128E+00    0.353E-01
DAV:   5    -0.353358005220E+02    0.15404E-02   -0.21792E-03  8576   0.860E-01    0.562E-02
DAV:   6    -0.353358531494E+02   -0.52627E-04   -0.77190E-04  7504   0.237E-01    0.178E-02
DAV:   7    -0.353358554246E+02   -0.22752E-05   -0.17951E-05  8288   0.740E-02    0.104E-02
DAV:   8    -0.353358565380E+02   -0.11134E-05   -0.33066E-06  7360   0.192E-02    0.149E-03
DAV:   9    -0.353358565975E+02   -0.59499E-07   -0.22429E-07  7856   0.541E-03    0.612E-04
DAV:  10    -0.353358566233E+02   -0.25826E-07   -0.99497E-09  4368   0.158E-03    0.121E-04
DAV:  11    -0.353358566375E+02   -0.14228E-07   -0.31388E-09  4064   0.789E-04    0.344E-05
DAV:  12    -0.353358566389E+02   -0.13679E-08   -0.88335E-10  3656   0.266E-04
  21 F= -.35335857E+02 E0= -.35336104E+02  d E =-.107617E-01  mag=    -0.0000
       N       E                     dE             d eps       ncg     rms          rms(c)
DAV:   1    -0.351705389852E+02    0.16532E+00   -0.42921E+00  9712   0.756E+01    0.116E+00
DAV:   2    -0.353582843438E+02   -0.18775E+00   -0.19073E+00  6992   0.109E+01    0.147E+00
DAV:   3    -0.353390629127E+02    0.19221E-01   -0.12044E-01  7704   0.441E+00    0.416E-01
DAV:   4    -0.353378968484E+02    0.11661E-02   -0.42852E-03  8992   0.724E-01    0.230E-01
DAV:   5    -0.353372651319E+02    0.63172E-03   -0.11342E-03  9088   0.578E-01    0.333E-02
DAV:   6    -0.353372871222E+02   -0.21990E-04   -0.31836E-04  7280   0.170E-01    0.133E-02
DAV:   7    -0.353372874103E+02   -0.28807E-06   -0.70161E-06  8056   0.375E-02    0.573E-03
DAV:   8    -0.353372879451E+02   -0.53482E-06   -0.88661E-07  7232   0.948E-03    0.990E-04
DAV:   9    -0.353372879504E+02   -0.52260E-08   -0.61896E-08  7448   0.384E-03
  22 F= -.35337288E+02 E0= -.35337510E+02  d E =-.143131E-02  mag=     0.0000
       N       E                     dE             d eps       ncg     rms          rms(c)
DAV:   1    -0.338386236942E+02    0.14987E+01   -0.36283E+01  9120   0.217E+02    0.313E+00
DAV:   2    -0.354415399820E+02   -0.16029E+01   -0.16509E+01  6896   0.307E+01    0.343E+00
DAV:   3    -0.353597956608E+02    0.81744E-01   -0.90589E-01  7856   0.114E+01    0.142E+00
DAV:   4    -0.353456419108E+02    0.14154E-01   -0.42214E-02  8192   0.236E+00    0.723E-01
DAV:   5    -0.353397259609E+02    0.59159E-02   -0.11808E-02  8496   0.171E+00    0.115E-01
DAV:   6    -0.353399132022E+02   -0.18724E-03   -0.27291E-03  8336   0.454E-01    0.373E-02
DAV:   7    -0.353399142069E+02   -0.10046E-05   -0.66865E-05  7872   0.129E-01    0.202E-02
DAV:   8    -0.353399171127E+02   -0.29058E-05   -0.91646E-06  7344   0.341E-02    0.268E-03
DAV:   9    -0.353399169820E+02    0.13065E-06   -0.88694E-07  8032   0.110E-02    0.138E-03
DAV:  10    -0.353399169435E+02    0.38512E-07   -0.11584E-07  6784   0.395E-03    0.372E-04
DAV:  11    -0.353399169348E+02    0.87039E-08   -0.12810E-08  4496   0.237E-03
  23 F= -.35339917E+02 E0= -.35339949E+02  d E =-.406030E-02  mag=    -0.0000
       N       E                     dE             d eps       ncg     rms          rms(c)
DAV:   1    -0.289800562302E+02    0.63599E+01   -0.14792E+02  8848   0.418E+02    0.532E+00
DAV:   2    -0.354162460274E+02   -0.64362E+01   -0.67416E+01  6480   0.632E+01    0.399E+00
DAV:   3    -0.354335555051E+02   -0.17309E-01   -0.24864E+00  8704   0.171E+01    0.315E+00
DAV:   4    -0.353621901073E+02    0.71365E-01   -0.17223E-01  7504   0.490E+00    0.156E+00
DAV:   5    -0.353353079228E+02    0.26882E-01   -0.56092E-02  7728   0.339E+00    0.280E-01
DAV:   6    -0.353360117710E+02   -0.70385E-03   -0.11072E-02  8408   0.881E-01    0.772E-02
DAV:   7    -0.353360468853E+02   -0.35114E-04   -0.65516E-04  7360   0.358E-01    0.691E-02
DAV:   8    -0.353360322635E+02    0.14622E-04   -0.16516E-04  7472   0.175E-01    0.116E-02
DAV:   9    -0.353360315197E+02    0.74378E-06   -0.11069E-05  7296   0.534E-02    0.255E-03
DAV:  10    -0.353360316061E+02   -0.86480E-07   -0.10161E-06  8400   0.126E-02    0.959E-04
DAV:  11    -0.353360316578E+02   -0.51616E-07   -0.79344E-08  7184   0.275E-03    0.247E-04
DAV:  12    -0.353360316726E+02   -0.14823E-07   -0.99089E-09  4416   0.129E-03    0.992E-05
DAV:  13    -0.353360316783E+02   -0.56771E-08   -0.20440E-09  3984   0.573E-04
  24 F= -.35336032E+02 E0= -.35336148E+02  d E =-.175039E-03  mag=     0.0000
       N       E                     dE             d eps       ncg     rms          rms(c)
DAV:   1    -0.318053534318E+02    0.35307E+01   -0.93847E+01  8432   0.346E+02    0.539E+00
DAV:   2    -0.357767855602E+02   -0.39714E+01   -0.39319E+01  7072   0.516E+01    0.641E+00
DAV:   3    -0.353780955474E+02    0.39869E+00   -0.26412E+00  7664   0.201E+01    0.188E+00
DAV:   4    -0.353556283939E+02    0.22467E-01   -0.11447E-01  8000   0.326E+00    0.109E+00
DAV:   5    -0.353400853756E+02    0.15543E-01   -0.29390E-02  8480   0.229E+00    0.122E-01
DAV:   6    -0.353404363806E+02   -0.35101E-03   -0.53527E-03  7152   0.742E-01    0.544E-02
DAV:   7    -0.353404360005E+02    0.38015E-06   -0.18670E-04  7984   0.138E-01    0.332E-02
DAV:   8    -0.353404348158E+02    0.11846E-05   -0.39301E-05  7664   0.695E-02    0.877E-03
DAV:   9    -0.353404338153E+02    0.10005E-05   -0.36231E-06  7488   0.299E-02    0.934E-04
DAV:  10    -0.353404337341E+02    0.81218E-07   -0.21562E-07  7184   0.489E-03    0.425E-04
DAV:  11    -0.353404336379E+02    0.96257E-07   -0.11548E-08  4832   0.114E-03    0.123E-04
DAV:  12    -0.353404336194E+02    0.18486E-07   -0.39086E-09  4008   0.604E-04    0.316E-05
DAV:  13    -0.353404336138E+02    0.55843E-08   -0.98412E-10  3800   0.295E-04
  25 F= -.35340434E+02 E0= -.35340517E+02  d E =-.457697E-02  mag=    -0.0000
       N       E                     dE             d eps       ncg     rms          rms(c)
DAV:   1    -0.350294677977E+02    0.31097E+00   -0.76841E+00  8320   0.102E+02    0.990E-01
DAV:   2    -0.353407480350E+02   -0.31128E+00   -0.31777E+00  6400   0.127E+01    0.587E-01
DAV:   3    -0.353468078532E+02   -0.60598E-02   -0.10224E-01  9360   0.328E+00    0.513E-01
DAV:   4    -0.353450409938E+02    0.17669E-02   -0.47450E-03  7792   0.843E-01    0.278E-01
DAV:   5    -0.353442309861E+02    0.81001E-03   -0.11055E-03  7584   0.733E-01    0.575E-02
DAV:   6    -0.353442569771E+02   -0.25991E-04   -0.50388E-04  8480   0.191E-01    0.156E-02
DAV:   7    -0.353442565505E+02    0.42661E-06   -0.45908E-05  7328   0.119E-01    0.151E-02
DAV:   8    -0.353442560181E+02    0.53241E-06   -0.67356E-06  7488   0.516E-02    0.224E-03
DAV:   9    -0.353442561571E+02   -0.13905E-06   -0.68524E-07  8432   0.128E-02    0.991E-04
DAV:  10    -0.353442561770E+02   -0.19880E-07   -0.80400E-08  7472   0.290E-03    0.282E-04
DAV:  11    -0.353442562004E+02   -0.23465E-07   -0.38254E-09  3920   0.144E-03    0.137E-04
DAV:  12    -0.353442562047E+02   -0.43037E-08   -0.24094E-09  3648   0.519E-04
  26 F= -.35344256E+02 E0= -.35344453E+02  d E =-.382259E-02  mag=     0.0000
       N       E                     dE             d eps       ncg     rms          rms(c)
DAV:   1    -0.324347653531E+02    0.29095E+01   -0.69820E+01  8352   0.299E+02    0.283E+00
DAV:   2    -0.353011317777E+02   -0.28664E+01   -0.29424E+01  6400   0.394E+01    0.131E+00
DAV:   3    -0.353636657714E+02   -0.62534E-01   -0.81784E-01  9312   0.733E+00    0.110E+00
DAV:   4    -0.353588079002E+02    0.48579E-02   -0.33512E-02  7776   0.203E+00    0.792E-01
DAV:   5    -0.353529150003E+02    0.58929E-02   -0.83094E-03  8896   0.172E+00    0.328E-01
DAV:   6    -0.353523250840E+02    0.58992E-03   -0.39878E-03  8752   0.821E-01    0.592E-02
DAV:   7    -0.353523456525E+02   -0.20568E-04   -0.67678E-04  7184   0.395E-01    0.284E-02
DAV:   8    -0.353523528445E+02   -0.71920E-05   -0.43370E-05  8992   0.681E-02    0.834E-03
DAV:   9    -0.353523529581E+02   -0.11363E-06   -0.33534E-06  7360   0.307E-02    0.151E-03
DAV:  10    -0.353523530731E+02   -0.11500E-06   -0.28502E-07  7312   0.557E-03    0.532E-04
DAV:  11    -0.353523531269E+02   -0.53773E-07   -0.21635E-08  4544   0.177E-03    0.225E-04
DAV:  12    -0.353523531229E+02    0.40382E-08   -0.66651E-09  4128   0.147E-03
  27 F= -.35352353E+02 E0= -.35352456E+02  d E =-.119195E-01  mag=    -0.0000
       N       E                     dE             d eps       ncg     rms          rms(c)
DAV:   1    -0.264577598503E+02    0.88946E+01   -0.32597E+02 10912   0.562E+02    0.421E+00
DAV:   2    -0.353804747039E+02   -0.89227E+01   -0.93250E+01  6400   0.771E+01    0.358E+00
DAV:   3    -0.354376120058E+02   -0.57137E-01   -0.20887E+00  8624   0.150E+01    0.240E+00
DAV:   4    -0.353860349184E+02    0.51577E-01   -0.29884E-01  7792   0.634E+00    0.162E+00
DAV:   5    -0.353548514826E+02    0.31183E-01   -0.81981E-02  7744   0.307E+00    0.326E-01
DAV:   6    -0.353549804360E+02   -0.12895E-03   -0.98579E-03  8064   0.880E-01    0.106E-01
DAV:   7    -0.353549695970E+02    0.10839E-04   -0.14392E-03  7408   0.427E-01    0.689E-02
DAV:   8    -0.353549322838E+02    0.37313E-04   -0.24178E-04  7424   0.177E-01    0.105E-02
DAV:   9    -0.353549334482E+02   -0.11643E-05   -0.94078E-06  7632   0.345E-02    0.383E-03
DAV:  10    -0.353549333997E+02    0.48418E-07   -0.76422E-07  7744   0.849E-03    0.121E-03
DAV:  11    -0.353549334202E+02   -0.20415E-07   -0.70183E-08  6824   0.250E-03    0.199E-04
DAV:  12    -0.353549334122E+02    0.79654E-08   -0.38556E-09  4400   0.836E-04
  28 F= -.35354933E+02 E0= -.35354554E+02  d E =-.144998E-01  mag=     0.0000
       N       E                     dE             d eps       ncg     rms          rms(c)
DAV:   1    -0.342513424145E+02    0.11036E+01   -0.27790E+01  8320   0.192E+02    0.192E+00
DAV:   2    -0.353549256101E+02   -0.11036E+01   -0.11181E+01  6416   0.235E+01    0.151E+00
DAV:   3    -0.353649414346E+02   -0.10016E-01   -0.42322E-01  8256   0.687E+00    0.986E-01
DAV:   4    -0.353587561197E+02    0.61853E-02   -0.21967E-02  7968   0.165E+00    0.549E-01
DAV:   5    -0.353555321562E+02    0.32240E-02   -0.58116E-03  8816   0.150E+00    0.564E-02
DAV:   6    -0.353556516710E+02   -0.11951E-03   -0.14895E-03  7104   0.363E-01    0.254E-02
DAV:   7    -0.353556555668E+02   -0.38959E-05   -0.52642E-05  8672   0.964E-02    0.205E-02
DAV:   8    -0.353556552202E+02    0.34661E-06   -0.13396E-05  7408   0.576E-02    0.396E-03
DAV:   9    -0.353556551958E+02    0.24431E-07   -0.12216E-06  7424   0.215E-02    0.124E-03
DAV:  10    -0.353556551380E+02    0.57844E-07   -0.14783E-07  8432   0.433E-03    0.333E-04
DAV:  11    -0.353556551039E+02    0.34061E-07   -0.53036E-09  4304   0.825E-04    0.787E-05
DAV:  12    -0.353556551002E+02    0.37217E-08   -0.12600E-09  3984   0.351E-04
  29 F= -.35355655E+02 E0= -.35355307E+02  d E =-.152215E-01  mag=    -0.0000
       N       E                     dE             d eps       ncg     rms          rms(c)
DAV:   1    -0.343702722197E+02    0.98538E+00   -0.24668E+01  8384   0.182E+02    0.257E+00
DAV:   2    -0.354479985864E+02   -0.10777E+01   -0.10766E+01  7056   0.243E+01    0.302E+00
DAV:   3    -0.353679747638E+02    0.80024E-01   -0.66955E-01  8160   0.984E+00    0.873E-01
DAV:   4    -0.353649259373E+02    0.30488E-02   -0.24774E-02  7968   0.156E+00    0.510E-01
DAV:   5    -0.353628232185E+02    0.21027E-02   -0.36428E-03  7904   0.119E+00    0.114E-01
DAV:   6    -0.353628734759E+02   -0.50257E-04   -0.12157E-03  8464   0.300E-01    0.238E-02
DAV:   7    -0.353628722037E+02    0.12722E-05   -0.97911E-05  7312   0.177E-01    0.221E-02
DAV:   8    -0.353628710620E+02    0.11418E-05   -0.12397E-05  7520   0.613E-02    0.413E-03
DAV:   9    -0.353628709296E+02    0.13237E-06   -0.13549E-06  8608   0.172E-02    0.157E-03
DAV:  10    -0.353628709130E+02    0.16560E-07   -0.14937E-07  8992   0.378E-03    0.454E-04
DAV:  11    -0.353628709110E+02    0.20373E-08   -0.16382E-08  4320   0.351E-03
  30 F= -.35362871E+02 E0= -.35362522E+02  d E =-.721581E-02  mag=    -0.0000
       N       E                     dE             d eps       ncg     rms          rms(c)
DAV:   1    -0.331262140799E+02    0.22367E+01   -0.55827E+01  8384   0.272E+02    0.387E+00
DAV:   2    -0.355574309053E+02   -0.24312E+01   -0.24233E+01  7040   0.373E+01    0.449E+00
DAV:   3    -0.353774630313E+02    0.17997E+00   -0.15338E+00  8016   0.149E+01    0.129E+00
DAV:   4    -0.353710701455E+02    0.63929E-02   -0.60267E-02  8320   0.237E+00    0.748E-01
DAV:   5    -0.353665341509E+02    0.45360E-02   -0.80551E-03  7664   0.157E+00    0.188E-01
DAV:   6    -0.353666019251E+02   -0.67774E-04   -0.24142E-03  8560   0.445E-01    0.366E-02
DAV:   7    -0.353665990057E+02    0.29195E-05   -0.27561E-04  7216   0.266E-01    0.346E-02
DAV:   8    -0.353665943551E+02    0.46506E-05   -0.36176E-05  7536   0.987E-02    0.710E-03
DAV:   9    -0.353665938735E+02    0.48158E-06   -0.32340E-06  8656   0.300E-02    0.153E-03
DAV:  10    -0.353665938727E+02    0.78944E-09   -0.30099E-07  7400   0.498E-03    0.611E-04
DAV:  11    -0.353665938661E+02    0.65811E-08   -0.19966E-08  4728   0.421E-03
  31 F= -.35366594E+02 E0= -.35366409E+02  d E =-.109388E-01  mag=    -0.0000
       N       E                     dE             d eps       ncg     rms          rms(c)
DAV:   1    -0.344760034132E+02    0.89059E+00   -0.23570E+01  9184   0.175E+02    0.247E+00
DAV:   2    -0.354648069920E+02   -0.98880E+00   -0.10062E+01  7008   0.237E+01    0.313E+00
DAV:   3    -0.353771867706E+02    0.87620E-01   -0.61876E-01  7328   0.960E+00    0.904E-01
DAV:   4    -0.353739430071E+02    0.32438E-02   -0.26624E-02  8240   0.162E+00    0.552E-01
DAV:   5    -0.353713912256E+02    0.25518E-02   -0.47730E-03  8112   0.134E+00    0.125E-01
DAV:   6    -0.353714365492E+02   -0.45324E-04   -0.14281E-03  8704   0.362E-01    0.273E-02
DAV:   7    -0.353714378110E+02   -0.12618E-05   -0.16917E-04  7232   0.232E-01    0.250E-02
DAV:   8    -0.353714377150E+02    0.95975E-07   -0.12605E-05  7680   0.651E-02    0.182E-03
DAV:   9    -0.353714379924E+02   -0.27736E-06   -0.19058E-06  7904   0.127E-02    0.303E-03
DAV:  10    -0.353714379590E+02    0.33378E-07   -0.32789E-07  7424   0.817E-03    0.368E-04
DAV:  11    -0.353714379865E+02   -0.27459E-07   -0.18610E-08  4240   0.258E-03    0.134E-04
DAV:  12    -0.353714379953E+02   -0.88839E-08   -0.39446E-09  4032   0.581E-04
  32 F= -.35371438E+02 E0= -.35371167E+02  d E =-.484413E-02  mag=     0.0000
       N       E                     dE             d eps       ncg     rms          rms(c)
DAV:   1    -0.351324942510E+02    0.23894E+00   -0.64993E+00  9312   0.922E+01    0.134E+00
DAV:   2    -0.354036766860E+02   -0.27118E+00   -0.27388E+00  7040   0.125E+01    0.180E+00
DAV:   3    -0.353731991633E+02    0.30478E-01   -0.18539E-01  7280   0.541E+00    0.423E-01
DAV:   4    -0.353727031189E+02    0.49604E-03   -0.75648E-03  8528   0.809E-01    0.274E-01
DAV:   5    -0.353720527888E+02    0.65033E-03   -0.11437E-03  7968   0.720E-01    0.574E-02
DAV:   6    -0.353720675007E+02   -0.14712E-04   -0.39628E-04  8656   0.186E-01    0.151E-02
DAV:   7    -0.353720666552E+02    0.84554E-06   -0.41522E-05  7248   0.127E-01    0.119E-02
DAV:   8    -0.353720672279E+02   -0.57277E-06   -0.32426E-06  7584   0.321E-02    0.104E-03
DAV:   9    -0.353720673133E+02   -0.85371E-07   -0.50036E-07  8544   0.713E-03    0.154E-03
DAV:  10    -0.353720673188E+02   -0.54624E-08   -0.86013E-08  7248   0.473E-03
  33 F= -.35372067E+02 E0= -.35371801E+02  d E =-.547345E-02  mag=    -0.0000
       N       E                     dE             d eps       ncg     rms          rms(c)
DAV:   1    -0.353613413263E+02    0.10726E-01   -0.69812E-01  7632   0.295E+01    0.145E+00
DAV:   2    -0.354278889851E+02   -0.66548E-01   -0.65546E-01  7152   0.874E+00    0.217E+00
DAV:   3    -0.353751506172E+02    0.52738E-01   -0.18927E-01  7136   0.538E+00    0.377E-01
DAV:   4    -0.353746282571E+02    0.52236E-03   -0.53856E-03  7552   0.660E-01    0.209E-01
DAV:   5    -0.353742532685E+02    0.37499E-03   -0.10611E-03  8000   0.405E-01    0.358E-02
DAV:   6    -0.353742426392E+02    0.10629E-04   -0.93374E-05  7312   0.986E-02    0.112E-02
DAV:   7    -0.353742427349E+02   -0.95681E-07   -0.54858E-06  7408   0.238E-02    0.308E-03
DAV:   8    -0.353742431520E+02   -0.41714E-06   -0.43631E-07  7472   0.472E-03    0.128E-03
DAV:   9    -0.353742431403E+02    0.11745E-07   -0.47116E-08  6720   0.277E-03    0.271E-04
DAV:  10    -0.353742431571E+02   -0.16809E-07   -0.97306E-09  4056   0.112E-03    0.170E-04
DAV:  11    -0.353742431660E+02   -0.88912E-08   -0.26887E-09  4064   0.680E-04
  34 F= -.35374243E+02 E0= -.35373972E+02  d E =-.217585E-02  mag=    -0.0000
       N       E                     dE             d eps       ncg     rms          rms(c)
DAV:   1    -0.353593118226E+02    0.14931E-01   -0.85065E-01  7600   0.325E+01    0.160E+00
DAV:   2    -0.354409180249E+02   -0.81606E-01   -0.80053E-01  7168   0.965E+00    0.241E+00
DAV:   3    -0.353761358812E+02    0.64782E-01   -0.23199E-01  7136   0.595E+00    0.418E-01
DAV:   4    -0.353754911660E+02    0.64472E-03   -0.66197E-03  7488   0.733E-01    0.231E-01
DAV:   5    -0.353750328998E+02    0.45827E-03   -0.12939E-03  7936   0.447E-01    0.394E-02
DAV:   6    -0.353750199000E+02    0.13000E-04   -0.11347E-04  7344   0.108E-01    0.124E-02
DAV:   7    -0.353750199450E+02   -0.45065E-07   -0.65889E-06  7408   0.262E-02    0.341E-03
DAV:   8    -0.353750204047E+02   -0.45971E-06   -0.52752E-07  7472   0.513E-03    0.140E-03
DAV:   9    -0.353750203896E+02    0.15159E-07   -0.57755E-08  7088   0.302E-03    0.295E-04
DAV:  10    -0.353750204072E+02   -0.17639E-07   -0.11728E-08  4048   0.127E-03    0.194E-04
DAV:  11    -0.353750204156E+02   -0.84074E-08   -0.30574E-09  4080   0.738E-04
  35 F= -.35375020E+02 E0= -.35374751E+02  d E =-.295310E-02  mag=    -0.0000
       N       E                     dE             d eps       ncg     rms          rms(c)
DAV:   1    -0.353706123577E+02    0.44080E-02   -0.38530E-01  7584   0.217E+01    0.114E+00
DAV:   2    -0.354107161592E+02   -0.40104E-01   -0.37971E-01  7376   0.683E+00    0.172E+00
DAV:   3    -0.353765141749E+02    0.34202E-01   -0.11946E-01  7168   0.428E+00    0.267E-01
DAV:   4    -0.353762532838E+02    0.26089E-03   -0.31864E-03  7472   0.478E-01    0.156E-01
DAV:   5    -0.353760134421E+02    0.23984E-03   -0.69532E-04  7920   0.312E-01    0.317E-02
DAV:   6    -0.353760001760E+02    0.13266E-04   -0.79784E-05  7280   0.962E-02    0.111E-02
DAV:   7    -0.353759989320E+02    0.12440E-05   -0.55102E-06  7856   0.217E-02    0.282E-03
DAV:   8    -0.353759986616E+02    0.27037E-06   -0.49407E-07  7248   0.571E-03    0.654E-04
DAV:   9    -0.353759986294E+02    0.32260E-07   -0.27224E-08  6096   0.178E-03    0.230E-04
DAV:  10    -0.353759986210E+02    0.84110E-08   -0.50505E-09  3952   0.874E-04
  36 F= -.35375999E+02 E0= -.35375729E+02  d E =-.978205E-03  mag=     0.0000
       N       E                     dE             d eps       ncg     rms          rms(c)
DAV:   1    -0.353745985778E+02    0.14001E-02   -0.10930E-01  7552   0.115E+01    0.604E-01
DAV:   2    -0.353858885401E+02   -0.11290E-01   -0.10748E-01  7392   0.363E+00    0.914E-01
DAV:   3    -0.353762851608E+02    0.96034E-02   -0.33560E-02  7136   0.227E+00    0.144E-01
DAV:   4    -0.353762048261E+02    0.80335E-04   -0.90101E-04  7536   0.259E-01    0.828E-02
DAV:   5    -0.353761358254E+02    0.69001E-04   -0.19102E-04  7936   0.164E-01    0.163E-02
DAV:   6    -0.353761318946E+02    0.39308E-05   -0.21937E-05  7296   0.504E-02    0.601E-03
DAV:   7    -0.353761314243E+02    0.47035E-06   -0.14979E-06  7936   0.117E-02    0.149E-03
DAV:   8    -0.353761312835E+02    0.14080E-06   -0.12890E-07  6576   0.296E-03    0.326E-04
DAV:   9    -0.353761312663E+02    0.17202E-07   -0.59931E-09  4368   0.837E-04    0.112E-04
DAV:  10    -0.353761312621E+02    0.41782E-08   -0.21267E-09  3824   0.540E-04
  37 F= -.35376131E+02 E0= -.35375864E+02  d E =-.111085E-02  mag=    -0.0000
       N       E                     dE             d eps       ncg     rms          rms(c)
DAV:   1    -0.353760411321E+02    0.90134E-04   -0.67400E-03  7584   0.286E+00    0.130E-01
DAV:   2    -0.353766002001E+02   -0.55907E-03   -0.55629E-03  7568   0.789E-01    0.188E-01
DAV:   3    -0.353762010298E+02    0.39917E-03   -0.14577E-03  7168   0.476E-01    0.361E-02
DAV:   4    -0.353761932696E+02    0.77602E-05   -0.46072E-05  7632   0.644E-02    0.166E-02
DAV:   5    -0.353761907438E+02    0.25257E-05   -0.74825E-06  7792   0.293E-02    0.263E-03
DAV:   6    -0.353761908867E+02   -0.14289E-06   -0.99362E-07  7280   0.103E-02    0.156E-03
DAV:   7    -0.353761909095E+02   -0.22743E-07   -0.74242E-08  6880   0.313E-03    0.308E-04
DAV:   8    -0.353761909428E+02   -0.33331E-07   -0.49608E-09  4016   0.665E-04    0.544E-05
DAV:   9    -0.353761909455E+02   -0.27067E-08   -0.10136E-09  3808   0.360E-04
  38 F= -.35376191E+02 E0= -.35375925E+02  d E =-.596834E-04  mag=    -0.0000
       N       E                     dE             d eps       ncg     rms          rms(c)
DAV:   1    -0.353755620571E+02    0.62889E-03   -0.30467E-02  7584   0.607E+00    0.275E-01
DAV:   2    -0.353781002006E+02   -0.25381E-02   -0.25154E-02  7600   0.168E+00    0.400E-01
DAV:   3    -0.353762912590E+02    0.18089E-02   -0.65825E-03  7168   0.101E+00    0.769E-02
DAV:   4    -0.353762547366E+02    0.36522E-04   -0.20876E-04  7648   0.137E-01    0.354E-02
DAV:   5    -0.353762418954E+02    0.12841E-04   -0.33824E-05  7808   0.623E-02    0.558E-03
DAV:   6    -0.353762421531E+02   -0.25769E-06   -0.44790E-06  7296   0.219E-02    0.332E-03
DAV:   7    -0.353762421765E+02   -0.23390E-07   -0.33662E-07  8208   0.662E-03    0.654E-04
DAV:   8    -0.353762422470E+02   -0.70560E-07   -0.21153E-08  5696   0.122E-03    0.106E-04
DAV:   9    -0.353762422512E+02   -0.41346E-08   -0.20821E-09  4032   0.515E-04
  39 F= -.35376242E+02 E0= -.35375980E+02  d E =-.110989E-03  mag=    -0.0000
       N       E                     dE             d eps       ncg     rms          rms(c)
DAV:   1    -0.353766788796E+02   -0.43663E-03   -0.12179E-02  7216   0.330E+00    0.288E-01
DAV:   2    -0.353787228006E+02   -0.20439E-02   -0.18843E-02  7184   0.161E+00    0.463E-01
DAV:   3    -0.353762959064E+02    0.24269E-02   -0.80567E-03  7168   0.110E+00    0.524E-02
DAV:   4    -0.353762909134E+02    0.49930E-05   -0.19895E-04  7104   0.109E-01    0.278E-02
DAV:   5    -0.353762833761E+02    0.75373E-05   -0.19680E-05  8368   0.506E-02    0.536E-03
DAV:   6    -0.353762825677E+02    0.80841E-06   -0.26461E-06  7168   0.182E-02    0.286E-03
DAV:   7    -0.353762824282E+02    0.13953E-06   -0.26829E-07  7824   0.610E-03    0.367E-04
DAV:   8    -0.353762823893E+02    0.38865E-07   -0.12571E-08  4512   0.130E-03    0.696E-05
DAV:   9    -0.353762823806E+02    0.86948E-08   -0.19233E-09  3984   0.410E-04
  40 F= -.35376282E+02 E0= -.35376024E+02  d E =-.401294E-04  mag=    -0.0000
       N       E                     dE             d eps       ncg     rms          rms(c)
DAV:   1    -0.353764432365E+02   -0.16085E-03   -0.46565E-03  7248   0.204E+00    0.178E-01
DAV:   2    -0.353772254374E+02   -0.78220E-03   -0.72001E-03  7168   0.994E-01    0.286E-01
DAV:   3    -0.353762980185E+02    0.92742E-03   -0.30752E-03  7168   0.677E-01    0.325E-02
DAV:   4    -0.353762957593E+02    0.22591E-05   -0.75994E-05  7072   0.678E-02    0.171E-02
DAV:   5    -0.353762926526E+02    0.31067E-05   -0.73789E-06  8480   0.310E-02    0.327E-03
DAV:   6    -0.353762922432E+02    0.40944E-06   -0.98769E-07  7168   0.111E-02    0.177E-03
DAV:   7    -0.353762921729E+02    0.70293E-07   -0.10197E-07  7152   0.379E-03    0.226E-04
DAV:   8    -0.353762921468E+02    0.26077E-07   -0.48078E-09  3872   0.824E-04    0.410E-05
DAV:   9    -0.353762921413E+02    0.55297E-08   -0.10354E-09  3760   0.310E-04
  41 F= -.35376292E+02 E0= -.35376035E+02  d E =-.498901E-04  mag=    -0.0000
