   6   6   0   0
  0.1116132E+02  0.5616771E-09  0.5616771E-09  0.3518167E-09  0.5000000E-15
  1.000000000000000E-004
  CAR 
 unknown system                          
     24.14497178    -59.13748515  301      8.24162763      1.00000000
    -59.137  0.0000E+00  0.0000E+00  0.0000E+00  0.0000E+00
    -58.860  0.0000E+00  0.0000E+00  0.0000E+00  0.0000E+00
    -58.582  0.0000E+00  0.0000E+00  0.0000E+00  0.0000E+00
    -58.305  0.0000E+00  0.0000E+00  0.0000E+00  0.0000E+00
    -58.027  0.0000E+00  0.0000E+00  0.0000E+00  0.0000E+00
    -57.749  0.0000E+00  0.0000E+00  0.0000E+00  0.0000E+00
    -57.472  0.0000E+00  0.0000E+00  0.0000E+00  0.0000E+00
    -57.194  0.0000E+00  0.0000E+00  0.0000E+00  0.0000E+00
    -56.917  0.0000E+00  0.0000E+00  0.0000E+00  0.0000E+00
    -56.639  0.0000E+00  0.0000E+00  0.0000E+00  0.0000E+00
    -56.361  0.0000E+00  0.0000E+00  0.0000E+00  0.0000E+00
    -56.084  0.0000E+00  0.0000E+00  0.0000E+00  0.0000E+00
    -55.806  0.0000E+00  0.0000E+00  0.0000E+00  0.0000E+00
    -55.529  0.0000E+00  0.0000E+00  0.0000E+00  0.0000E+00
    -55.251  0.6058E+02  0.0000E+00  0.5270E+01  0.0000E+00
    -54.973  0.0000E+00  0.5961E+02  0.1500E+02  0.3994E+01
    -54.696  0.0000E+00  0.0000E+00  0.1500E+02  0.1500E+02
    -54.418  0.0000E+00  0.0000E+00  0.1500E+02  0.1500E+02
    -54.141  0.0000E+00  0.0000E+00  0.1500E+02  0.1500E+02
    -53.863  0.0000E+00  0.0000E+00  0.1500E+02  0.1500E+02
    -53.585  0.0000E+00  0.0000E+00  0.1500E+02  0.1500E+02
    -53.308  0.0000E+00  0.0000E+00  0.1500E+02  0.1500E+02
    -53.030  0.0000E+00  0.0000E+00  0.1500E+02  0.1500E+02
    -52.752  0.0000E+00  0.0000E+00  0.1500E+02  0.1500E+02
    -52.475  0.0000E+00  0.0000E+00  0.1500E+02  0.1500E+02
    -52.197  0.0000E+00  0.0000E+00  0.1500E+02  0.1500E+02
    -51.920  0.0000E+00  0.0000E+00  0.1500E+02  0.1500E+02
    -51.642  0.0000E+00  0.0000E+00  0.1500E+02  0.1500E+02
    -51.364  0.0000E+00  0.0000E+00  0.1500E+02  0.1500E+02
    -51.087  0.0000E+00  0.0000E+00  0.1500E+02  0.1500E+02
    -50.809  0.0000E+00  0.0000E+00  0.1500E+02  0.1500E+02
    -50.532  0.0000E+00  0.0000E+00  0.1500E+02  0.1500E+02
    -50.254  0.0000E+00  0.0000E+00  0.1500E+02  0.1500E+02
    -49.976  0.0000E+00  0.0000E+00  0.1500E+02  0.1500E+02
    -49.699  0.0000E+00  0.0000E+00  0.1500E+02  0.1500E+02
    -49.421  0.0000E+00  0.0000E+00  0.1500E+02  0.1500E+02
    -49.144  0.0000E+00  0.0000E+00  0.1500E+02  0.1500E+02
    -48.866  0.0000E+00  0.0000E+00  0.1500E+02  0.1500E+02
    -48.588  0.0000E+00  0.0000E+00  0.1500E+02  0.1500E+02
    -48.311  0.0000E+00  0.0000E+00  0.1500E+02  0.1500E+02
    -48.033  0.0000E+00  0.0000E+00  0.1500E+02  0.1500E+02
    -47.756  0.0000E+00  0.0000E+00  0.1500E+02  0.1500E+02
    -47.478  0.0000E+00  0.0000E+00  0.1500E+02  0.1500E+02
    -47.200  0.0000E+00  0.0000E+00  0.1500E+02  0.1500E+02
    -46.923  0.0000E+00  0.0000E+00  0.1500E+02  0.1500E+02
    -46.645  0.0000E+00  0.0000E+00  0.1500E+02  0.1500E+02
    -46.368  0.0000E+00  0.0000E+00  0.1500E+02  0.1500E+02
    -46.090  0.0000E+00  0.0000E+00  0.1500E+02  0.1500E+02
    -45.812  0.0000E+00  0.0000E+00  0.1500E+02  0.1500E+02
    -45.535  0.0000E+00  0.0000E+00  0.1500E+02  0.1500E+02
    -45.257  0.0000E+00  0.0000E+00  0.1500E+02  0.1500E+02
    -44.979  0.0000E+00  0.0000E+00  0.1500E+02  0.1500E+02
    -44.702  0.0000E+00  0.0000E+00  0.1500E+02  0.1500E+02
    -44.424  0.0000E+00  0.0000E+00  0.1500E+02  0.1500E+02
    -44.147  0.0000E+00  0.0000E+00  0.1500E+02  0.1500E+02
    -43.869  0.0000E+00  0.0000E+00  0.1500E+02  0.1500E+02
    -43.591  0.0000E+00  0.0000E+00  0.1500E+02  0.1500E+02
    -43.314  0.0000E+00  0.0000E+00  0.1500E+02  0.1500E+02
    -43.036  0.0000E+00  0.0000E+00  0.1500E+02  0.1500E+02
    -42.759  0.0000E+00  0.0000E+00  0.1500E+02  0.1500E+02
    -42.481  0.0000E+00  0.0000E+00  0.1500E+02  0.1500E+02
    -42.203  0.0000E+00  0.0000E+00  0.1500E+02  0.1500E+02
    -41.926  0.0000E+00  0.0000E+00  0.1500E+02  0.1500E+02
    -41.648  0.0000E+00  0.0000E+00  0.1500E+02  0.1500E+02
    -41.371  0.0000E+00  0.0000E+00  0.1500E+02  0.1500E+02
    -41.093  0.0000E+00  0.0000E+00  0.1500E+02  0.1500E+02
    -40.815  0.0000E+00  0.0000E+00  0.1500E+02  0.1500E+02
    -40.538  0.0000E+00  0.0000E+00  0.1500E+02  0.1500E+02
    -40.260  0.0000E+00  0.0000E+00  0.1500E+02  0.1500E+02
    -39.983  0.0000E+00  0.0000E+00  0.1500E+02  0.1500E+02
    -39.705  0.0000E+00  0.0000E+00  0.1500E+02  0.1500E+02
    -39.427  0.0000E+00  0.0000E+00  0.1500E+02  0.1500E+02
    -39.150  0.0000E+00  0.0000E+00  0.1500E+02  0.1500E+02
    -38.872  0.0000E+00  0.0000E+00  0.1500E+02  0.1500E+02
    -38.594  0.0000E+00  0.0000E+00  0.1500E+02  0.1500E+02
    -38.317  0.0000E+00  0.0000E+00  0.1500E+02  0.1500E+02
    -38.039  0.0000E+00  0.0000E+00  0.1500E+02  0.1500E+02
    -37.762  0.0000E+00  0.0000E+00  0.1500E+02  0.1500E+02
    -37.484  0.0000E+00  0.0000E+00  0.1500E+02  0.1500E+02
    -37.206  0.0000E+00  0.0000E+00  0.1500E+02  0.1500E+02
    -36.929  0.0000E+00  0.0000E+00  0.1500E+02  0.1500E+02
    -36.651  0.0000E+00  0.0000E+00  0.1500E+02  0.1500E+02
    -36.374  0.0000E+00  0.0000E+00  0.1500E+02  0.1500E+02
    -36.096  0.0000E+00  0.0000E+00  0.1500E+02  0.1500E+02
    -35.818  0.0000E+00  0.0000E+00  0.1500E+02  0.1500E+02
    -35.541  0.0000E+00  0.0000E+00  0.1500E+02  0.1500E+02
    -35.263  0.0000E+00  0.0000E+00  0.1500E+02  0.1500E+02
    -34.986  0.0000E+00  0.0000E+00  0.1500E+02  0.1500E+02
    -34.708  0.0000E+00  0.0000E+00  0.1500E+02  0.1500E+02
    -34.430  0.0000E+00  0.0000E+00  0.1500E+02  0.1500E+02
    -34.153  0.0000E+00  0.0000E+00  0.1500E+02  0.1500E+02
    -33.875  0.0000E+00  0.0000E+00  0.1500E+02  0.1500E+02
    -33.598  0.0000E+00  0.0000E+00  0.1500E+02  0.1500E+02
    -33.320  0.0000E+00  0.0000E+00  0.1500E+02  0.1500E+02
    -33.042  0.0000E+00  0.0000E+00  0.1500E+02  0.1500E+02
    -32.765  0.0000E+00  0.0000E+00  0.1500E+02  0.1500E+02
    -32.487  0.0000E+00  0.0000E+00  0.1500E+02  0.1500E+02
    -32.209  0.0000E+00  0.0000E+00  0.1500E+02  0.1500E+02
    -31.932  0.0000E+00  0.0000E+00  0.1500E+02  0.1500E+02
    -31.654  0.0000E+00  0.0000E+00  0.1500E+02  0.1500E+02
    -31.377  0.0000E+00  0.0000E+00  0.1500E+02  0.1500E+02
    -31.099  0.0000E+00  0.0000E+00  0.1500E+02  0.1500E+02
    -30.821  0.0000E+00  0.0000E+00  0.1500E+02  0.1500E+02
    -30.544  0.0000E+00  0.0000E+00  0.1500E+02  0.1500E+02
    -30.266  0.0000E+00  0.0000E+00  0.1500E+02  0.1500E+02
    -29.989  0.0000E+00  0.0000E+00  0.1500E+02  0.1500E+02
    -29.711  0.0000E+00  0.0000E+00  0.1500E+02  0.1500E+02
    -29.433  0.0000E+00  0.0000E+00  0.1500E+02  0.1500E+02
    -29.156  0.0000E+00  0.0000E+00  0.1500E+02  0.1500E+02
    -28.878  0.0000E+00  0.0000E+00  0.1500E+02  0.1500E+02
    -28.601  0.0000E+00  0.0000E+00  0.1500E+02  0.1500E+02
    -28.323  0.0000E+00  0.0000E+00  0.1500E+02  0.1500E+02
    -28.045  0.0000E+00  0.0000E+00  0.1500E+02  0.1500E+02
    -27.768  0.0000E+00  0.0000E+00  0.1500E+02  0.1500E+02
    -27.490  0.0000E+00  0.0000E+00  0.1500E+02  0.1500E+02
    -27.213  0.0000E+00  0.0000E+00  0.1500E+02  0.1500E+02
    -26.935  0.0000E+00  0.0000E+00  0.1500E+02  0.1500E+02
    -26.657  0.0000E+00  0.0000E+00  0.1500E+02  0.1500E+02
    -26.380  0.0000E+00  0.0000E+00  0.1500E+02  0.1500E+02
    -26.102  0.0000E+00  0.0000E+00  0.1500E+02  0.1500E+02
    -25.825  0.0000E+00  0.0000E+00  0.1500E+02  0.1500E+02
    -25.547  0.0000E+00  0.0000E+00  0.1500E+02  0.1500E+02
    -25.269  0.0000E+00  0.0000E+00  0.1500E+02  0.1500E+02
    -24.992  0.0000E+00  0.0000E+00  0.1500E+02  0.1500E+02
    -24.714  0.0000E+00  0.0000E+00  0.1500E+02  0.1500E+02
    -24.436  0.0000E+00  0.0000E+00  0.1500E+02  0.1500E+02
    -24.159  0.0000E+00  0.0000E+00  0.1500E+02  0.1500E+02
    -23.881  0.0000E+00  0.0000E+00  0.1500E+02  0.1500E+02
    -23.604  0.0000E+00  0.0000E+00  0.1500E+02  0.1500E+02
    -23.326  0.0000E+00  0.0000E+00  0.1500E+02  0.1500E+02
    -23.048  0.0000E+00  0.0000E+00  0.1500E+02  0.1500E+02
    -22.771  0.0000E+00  0.0000E+00  0.1500E+02  0.1500E+02
    -22.493  0.0000E+00  0.0000E+00  0.1500E+02  0.1500E+02
    -22.216  0.0000E+00  0.0000E+00  0.1500E+02  0.1500E+02
    -21.938  0.0000E+00  0.0000E+00  0.1500E+02  0.1500E+02
    -21.660  0.0000E+00  0.0000E+00  0.1500E+02  0.1500E+02
    -21.383  0.0000E+00  0.0000E+00  0.1500E+02  0.1500E+02
    -21.105  0.0000E+00  0.0000E+00  0.1500E+02  0.1500E+02
    -20.828  0.0000E+00  0.0000E+00  0.1500E+02  0.1500E+02
    -20.550  0.0000E+00  0.0000E+00  0.1500E+02  0.1500E+02
    -20.272  0.0000E+00  0.0000E+00  0.1500E+02  0.1500E+02
    -19.995  0.0000E+00  0.0000E+00  0.1500E+02  0.1500E+02
    -19.717  0.0000E+00  0.0000E+00  0.1500E+02  0.1500E+02
    -19.440  0.0000E+00  0.0000E+00  0.1500E+02  0.1500E+02
    -19.162  0.0000E+00  0.0000E+00  0.1500E+02  0.1500E+02
    -18.884  0.0000E+00  0.0000E+00  0.1500E+02  0.1500E+02
    -18.607  0.0000E+00  0.0000E+00  0.1500E+02  0.1500E+02
    -18.329  0.0000E+00  0.0000E+00  0.1500E+02  0.1500E+02
    -18.051  0.0000E+00  0.0000E+00  0.1500E+02  0.1500E+02
    -17.774  0.0000E+00  0.0000E+00  0.1500E+02  0.1500E+02
    -17.496  0.0000E+00  0.0000E+00  0.1500E+02  0.1500E+02
    -17.219  0.0000E+00  0.0000E+00  0.1500E+02  0.1500E+02
    -16.941  0.0000E+00  0.0000E+00  0.1500E+02  0.1500E+02
    -16.663  0.0000E+00  0.0000E+00  0.1500E+02  0.1500E+02
    -16.386  0.0000E+00  0.0000E+00  0.1500E+02  0.1500E+02
    -16.108  0.0000E+00  0.0000E+00  0.1500E+02  0.1500E+02
    -15.831  0.0000E+00  0.0000E+00  0.1500E+02  0.1500E+02
    -15.553  0.0000E+00  0.0000E+00  0.1500E+02  0.1500E+02
    -15.275  0.0000E+00  0.0000E+00  0.1500E+02  0.1500E+02
    -14.998  0.0000E+00  0.0000E+00  0.1500E+02  0.1500E+02
    -14.720  0.0000E+00  0.0000E+00  0.1500E+02  0.1500E+02
    -14.443  0.0000E+00  0.0000E+00  0.1500E+02  0.1500E+02
    -14.165  0.0000E+00  0.0000E+00  0.1500E+02  0.1500E+02
    -13.887  0.0000E+00  0.0000E+00  0.1500E+02  0.1500E+02
    -13.610  0.0000E+00  0.0000E+00  0.1500E+02  0.1500E+02
    -13.332  0.0000E+00  0.0000E+00  0.1500E+02  0.1500E+02
    -13.055  0.0000E+00  0.0000E+00  0.1500E+02  0.1500E+02
    -12.777  0.0000E+00  0.0000E+00  0.1500E+02  0.1500E+02
    -12.499  0.0000E+00  0.0000E+00  0.1500E+02  0.1500E+02
    -12.222  0.0000E+00  0.0000E+00  0.1500E+02  0.1500E+02
    -11.944  0.0000E+00  0.0000E+00  0.1500E+02  0.1500E+02
    -11.666  0.0000E+00  0.0000E+00  0.1500E+02  0.1500E+02
    -11.389  0.0000E+00  0.0000E+00  0.1500E+02  0.1500E+02
    -11.111  0.0000E+00  0.0000E+00  0.1500E+02  0.1500E+02
    -10.834  0.0000E+00  0.0000E+00  0.1500E+02  0.1500E+02
    -10.556  0.0000E+00  0.0000E+00  0.1500E+02  0.1500E+02
    -10.278  0.0000E+00  0.0000E+00  0.1500E+02  0.1500E+02
    -10.001  0.0000E+00  0.0000E+00  0.1500E+02  0.1500E+02
     -9.723  0.0000E+00  0.0000E+00  0.1500E+02  0.1500E+02
     -9.446  0.0000E+00  0.0000E+00  0.1500E+02  0.1500E+02
     -9.168  0.0000E+00  0.0000E+00  0.1500E+02  0.1500E+02
     -8.890  0.0000E+00  0.0000E+00  0.1500E+02  0.1500E+02
     -8.613  0.0000E+00  0.0000E+00  0.1500E+02  0.1500E+02
     -8.335  0.0000E+00  0.0000E+00  0.1500E+02  0.1500E+02
     -8.058  0.0000E+00  0.0000E+00  0.1500E+02  0.1500E+02
     -7.780  0.0000E+00  0.0000E+00  0.1500E+02  0.1500E+02
     -7.502  0.0000E+00  0.0000E+00  0.1500E+02  0.1500E+02
     -7.225  0.0000E+00  0.0000E+00  0.1500E+02  0.1500E+02
     -6.947  0.0000E+00  0.0000E+00  0.1500E+02  0.1500E+02
     -6.670  0.0000E+00  0.0000E+00  0.1500E+02  0.1500E+02
     -6.392  0.0000E+00  0.0000E+00  0.1500E+02  0.1500E+02
     -6.114  0.0000E+00  0.0000E+00  0.1500E+02  0.1500E+02
     -5.837  0.0000E+00  0.0000E+00  0.1500E+02  0.1500E+02
     -5.559  0.0000E+00  0.0000E+00  0.1500E+02  0.1500E+02
     -5.281  0.0000E+00  0.0000E+00  0.1500E+02  0.1500E+02
     -5.004  0.0000E+00  0.0000E+00  0.1500E+02  0.1500E+02
     -4.726  0.0000E+00  0.0000E+00  0.1500E+02  0.1500E+02
     -4.449  0.0000E+00  0.0000E+00  0.1500E+02  0.1500E+02
     -4.171  0.0000E+00  0.0000E+00  0.1500E+02  0.1500E+02
     -3.893  0.0000E+00  0.0000E+00  0.1500E+02  0.1500E+02
     -3.616  0.0000E+00  0.0000E+00  0.1500E+02  0.1500E+02
     -3.338  0.0000E+00  0.0000E+00  0.1500E+02  0.1500E+02
     -3.061  0.0000E+00  0.0000E+00  0.1500E+02  0.1500E+02
     -2.783  0.0000E+00  0.0000E+00  0.1500E+02  0.1500E+02
     -2.505  0.0000E+00  0.0000E+00  0.1500E+02  0.1500E+02
     -2.228  0.0000E+00  0.0000E+00  0.1500E+02  0.1500E+02
     -1.950  0.0000E+00  0.0000E+00  0.1500E+02  0.1500E+02
     -1.673  0.0000E+00  0.0000E+00  0.1500E+02  0.1500E+02
     -1.395  0.1857E-01  0.2739E-01  0.1500E+02  0.1500E+02
     -1.117  0.1225E+00  0.1314E+00  0.1502E+02  0.1502E+02
     -0.840  0.1863E+00  0.1913E+00  0.1506E+02  0.1507E+02
     -0.562  0.2653E+00  0.2689E+00  0.1513E+02  0.1513E+02
     -0.285  0.2823E+00  0.2810E+00  0.1520E+02  0.1521E+02
     -0.007  0.2795E+00  0.2803E+00  0.1528E+02  0.1529E+02
      0.271  0.2965E+00  0.2969E+00  0.1536E+02  0.1537E+02
      0.548  0.3821E+00  0.3995E+00  0.1545E+02  0.1546E+02
      0.826  0.5455E+00  0.5425E+00  0.1558E+02  0.1560E+02
      1.103  0.4591E+00  0.4525E+00  0.1573E+02  0.1573E+02
      1.381  0.4398E+00  0.4251E+00  0.1585E+02  0.1586E+02
      1.659  0.3768E+00  0.3701E+00  0.1596E+02  0.1597E+02
      1.936  0.3899E+00  0.3833E+00  0.1607E+02  0.1607E+02
      2.214  0.4755E+00  0.4709E+00  0.1620E+02  0.1620E+02
      2.492  0.6039E+00  0.5897E+00  0.1632E+02  0.1632E+02
      2.769  0.9213E+00  0.8774E+00  0.1655E+02  0.1654E+02
      3.047  0.1017E+01  0.9782E+00  0.1682E+02  0.1680E+02
      3.324  0.1321E+01  0.1033E+01  0.1712E+02  0.1707E+02
      3.602  0.1161E+01  0.9321E+00  0.1739E+02  0.1733E+02
      3.880  0.1698E+01  0.1487E+01  0.1783E+02  0.1771E+02
      4.157  0.1640E+01  0.1287E+01  0.1829E+02  0.1814E+02
      4.435  0.2397E+01  0.3717E+01  0.1916E+02  0.1879E+02
      4.712  0.4654E+01  0.3145E+01  0.2003E+02  0.1957E+02
      4.990  0.5019E+01  0.4669E+01  0.2152E+02  0.2050E+02
      5.268  0.4973E+01  0.6978E+01  0.2315E+02  0.2193E+02
      5.545  0.5595E+01  0.4548E+01  0.2471E+02  0.2347E+02
      5.823  0.8754E+01  0.6477E+01  0.2625E+02  0.2503E+02
      6.100  0.8775E+01  0.6879E+01  0.2795E+02  0.2661E+02
      6.378  0.7189E+01  0.7548E+01  0.2999E+02  0.2817E+02
      6.656  0.7786E+01  0.5956E+01  0.3170E+02  0.3016E+02
      6.933  0.6577E+01  0.5934E+01  0.3337E+02  0.3201E+02
      7.211  0.8740E+01  0.6726E+01  0.3552E+02  0.3366E+02
      7.488  0.6454E+01  0.9443E+01  0.3781E+02  0.3602E+02
      7.766  0.7675E+01  0.6910E+01  0.3986E+02  0.3801E+02
      8.044  0.4233E+01  0.6893E+01  0.4166E+02  0.3992E+02
      8.321  0.1727E+01  0.5833E+01  0.4221E+02  0.4136E+02
      8.599  0.1578E+01  0.1701E+01  0.4261E+02  0.4226E+02
      8.877  0.8889E+00  0.1797E+01  0.4299E+02  0.4269E+02
      9.154  0.7949E+00  0.8274E+00  0.4323E+02  0.4306E+02
      9.432  0.1125E+01  0.9273E+00  0.4350E+02  0.4331E+02
      9.709  0.1127E+01  0.1261E+01  0.4382E+02  0.4362E+02
      9.987  0.8710E+00  0.1102E+01  0.4412E+02  0.4396E+02
     10.265  0.8241E+00  0.8666E+00  0.4435E+02  0.4423E+02
     10.542  0.8235E+00  0.8070E+00  0.4457E+02  0.4446E+02
     10.820  0.8074E+00  0.8529E+00  0.4480E+02  0.4470E+02
     11.097  0.7854E+00  0.9037E+00  0.4503E+02  0.4494E+02
     11.375  0.6130E+00  0.6744E+00  0.4522E+02  0.4516E+02
     11.653  0.5952E+00  0.6169E+00  0.4539E+02  0.4533E+02
     11.930  0.5957E+00  0.6039E+00  0.4556E+02  0.4550E+02
     12.208  0.4805E+00  0.5201E+00  0.4570E+02  0.4566E+02
     12.485  0.3788E+00  0.4174E+00  0.4582E+02  0.4579E+02
     12.763  0.6940E+00  0.5480E+00  0.4597E+02  0.4590E+02
     13.041  0.6661E+00  0.8428E+00  0.4618E+02  0.4610E+02
     13.318  0.7354E+00  0.6543E+00  0.4636E+02  0.4629E+02
     13.596  0.9119E+00  0.9221E+00  0.4660E+02  0.4651E+02
     13.873  0.9724E+00  0.9891E+00  0.4686E+02  0.4677E+02
     14.151  0.1026E+01  0.1055E+01  0.4714E+02  0.4706E+02
     14.429  0.1027E+01  0.1024E+01  0.4742E+02  0.4734E+02
     14.706  0.1106E+01  0.1052E+01  0.4770E+02  0.4763E+02
     14.984  0.9873E+00  0.1023E+01  0.4799E+02  0.4793E+02
     15.262  0.9907E+00  0.1016E+01  0.4827E+02  0.4821E+02
     15.539  0.9645E+00  0.9993E+00  0.4854E+02  0.4849E+02
     15.817  0.9473E+00  0.9555E+00  0.4880E+02  0.4875E+02
     16.094  0.7626E+00  0.7918E+00  0.4904E+02  0.4900E+02
     16.372  0.7324E+00  0.7195E+00  0.4924E+02  0.4920E+02
     16.650  0.7556E+00  0.8014E+00  0.4945E+02  0.4941E+02
     16.927  0.8065E+00  0.8110E+00  0.4967E+02  0.4963E+02
     17.205  0.1104E+01  0.1096E+01  0.4994E+02  0.4989E+02
     17.482  0.7618E+00  0.7542E+00  0.5017E+02  0.5014E+02
     17.760  0.1274E+01  0.1228E+01  0.5045E+02  0.5040E+02
     18.038  0.1097E+01  0.1162E+01  0.5081E+02  0.5077E+02
     18.315  0.1231E+01  0.1273E+01  0.5116E+02  0.5111E+02
     18.593  0.9212E+00  0.9628E+00  0.5145E+02  0.5142E+02
     18.870  0.7171E+00  0.7433E+00  0.5167E+02  0.5165E+02
     19.148  0.3473E+00  0.3890E+00  0.5183E+02  0.5182E+02
     19.426  0.2309E+00  0.2433E+00  0.5190E+02  0.5190E+02
     19.703  0.1469E+00  0.1558E+00  0.5196E+02  0.5195E+02
     19.981  0.7412E-01  0.8022E-01  0.5199E+02  0.5198E+02
     20.258  0.2723E-01  0.2894E-01  0.5200E+02  0.5200E+02
     20.536  0.0000E+00  0.0000E+00  0.5200E+02  0.5200E+02
     20.814  0.0000E+00  0.0000E+00  0.5200E+02  0.5200E+02
     21.091  0.0000E+00  0.0000E+00  0.5200E+02  0.5200E+02
     21.369  0.0000E+00  0.0000E+00  0.5200E+02  0.5200E+02
     21.646  0.0000E+00  0.0000E+00  0.5200E+02  0.5200E+02
     21.924  0.0000E+00  0.0000E+00  0.5200E+02  0.5200E+02
     22.202  0.0000E+00  0.0000E+00  0.5200E+02  0.5200E+02
     22.479  0.0000E+00  0.0000E+00  0.5200E+02  0.5200E+02
     22.757  0.0000E+00  0.0000E+00  0.5200E+02  0.5200E+02
     23.035  0.0000E+00  0.0000E+00  0.5200E+02  0.5200E+02
     23.312  0.0000E+00  0.0000E+00  0.5200E+02  0.5200E+02
     23.590  0.0000E+00  0.0000E+00  0.5200E+02  0.5200E+02
     23.867  0.0000E+00  0.0000E+00  0.5200E+02  0.5200E+02
     24.145  0.0000E+00  0.0000E+00  0.5200E+02  0.5200E+02
