       N       E                     dE             d eps       ncg     rms          rms(c)
DAV:   1     0.109530409860E+04    0.10953E+04   -0.50747E+04  8552   0.208E+03
DAV:   2     0.379620790183E+02   -0.10573E+04   -0.10256E+04  7492   0.657E+02
DAV:   3    -0.372253235189E+02   -0.75187E+02   -0.68659E+02  8432   0.194E+02
DAV:   4    -0.399031302392E+02   -0.26778E+01   -0.26161E+01  8240   0.353E+01
DAV:   5    -0.399619444887E+02   -0.58814E-01   -0.58804E-01  8512   0.503E+00    0.226E+01
DAV:   6    -0.414852488108E+02   -0.15233E+01   -0.76934E+01  8508   0.990E+01    0.291E+01
DAV:   7    -0.377362020338E+02    0.37490E+01   -0.32359E+01  8448   0.884E+01    0.178E+01
DAV:   8    -0.343113532875E+02    0.34248E+01   -0.65341E+00  9232   0.371E+01    0.428E+00
DAV:   9    -0.345244840896E+02   -0.21313E+00   -0.17761E+00  9464   0.207E+01    0.650E+00
DAV:  10    -0.343788549687E+02    0.14563E+00   -0.61166E-01  8744   0.143E+01    0.414E+00
DAV:  11    -0.343186517451E+02    0.60203E-01   -0.42751E-01  8816   0.110E+01    0.214E+00
DAV:  12    -0.342944295492E+02    0.24222E-01   -0.58621E-02  9528   0.442E+00    0.343E-01
DAV:  13    -0.342954856700E+02   -0.10561E-02   -0.70182E-03  7932   0.730E-01    0.195E-01
DAV:  14    -0.342955751865E+02   -0.89517E-04   -0.45054E-04  8856   0.244E-01    0.109E-01
DAV:  15    -0.342956398075E+02   -0.64621E-04   -0.12382E-04  9380   0.149E-01    0.500E-02
DAV:  16    -0.342956587612E+02   -0.18954E-04   -0.45799E-05  9356   0.865E-02    0.221E-02
DAV:  17    -0.342956622638E+02   -0.35026E-05   -0.87364E-06  8216   0.304E-02    0.837E-03
DAV:  18    -0.342956626780E+02   -0.41416E-06   -0.16211E-06  8836   0.125E-02    0.341E-03
DAV:  19    -0.342956630234E+02   -0.34539E-06   -0.23305E-07  8544   0.523E-03    0.264E-03
DAV:  20    -0.342956629997E+02    0.23701E-07   -0.10763E-07  8644   0.734E-03    0.583E-04
DAV:  21    -0.342956630078E+02   -0.81855E-08   -0.14833E-08  4708   0.140E-03
   1 F= -.34295663E+02 E0= -.34296052E+02  d E =-.342957E+02  mag=     1.3025
       N       E                     dE             d eps       ncg     rms          rms(c)
DAV:   1    -0.414459857800E+02   -0.71503E+01   -0.75195E+01  7772   0.137E+02    0.270E+01
DAV:   2    -0.423572020531E+02   -0.91122E+00   -0.11415E+02  8368   0.101E+02    0.235E+01
DAV:   3    -0.354963114749E+02    0.68609E+01   -0.26387E+01  8436   0.629E+01    0.192E+01
DAV:   4    -0.344271820281E+02    0.10691E+01   -0.58807E+00  8380   0.277E+01    0.388E+00
DAV:   5    -0.344328410818E+02   -0.56591E-02   -0.54400E-01  8964   0.119E+01    0.495E+00
DAV:   6    -0.343195228820E+02    0.11332E+00   -0.26745E-01  8316   0.100E+01    0.185E+00
DAV:   7    -0.343016370978E+02    0.17886E-01   -0.60069E-02  9164   0.318E+00    0.867E-01
DAV:   8    -0.343058735558E+02   -0.42365E-02   -0.88578E-03  7892   0.106E+00    0.730E-01
DAV:   9    -0.343104707541E+02   -0.45972E-02   -0.10379E-02  9264   0.102E+00    0.303E-01
DAV:  10    -0.343111729432E+02   -0.70219E-03   -0.18904E-03  8792   0.553E-01    0.131E-01
DAV:  11    -0.343113871842E+02   -0.21424E-03   -0.51962E-04  9004   0.297E-01    0.878E-02
DAV:  12    -0.343114293678E+02   -0.42184E-04   -0.75832E-05  9960   0.120E-01    0.197E-02
DAV:  13    -0.343114364198E+02   -0.70520E-05   -0.18764E-05  7748   0.455E-02    0.948E-03
DAV:  14    -0.343114374364E+02   -0.10166E-05   -0.20813E-06  8396   0.150E-02    0.480E-03
DAV:  15    -0.343114376868E+02   -0.25041E-06   -0.29347E-07  7900   0.599E-03    0.140E-03
DAV:  16    -0.343114376391E+02    0.47708E-07   -0.48329E-08  7008   0.280E-03    0.536E-04
DAV:  17    -0.343114376265E+02    0.12540E-07   -0.95120E-09  3964   0.110E-03    0.258E-04
DAV:  18    -0.343114376184E+02    0.81600E-08   -0.19026E-09  3876   0.520E-04
   2 F= -.34311438E+02 E0= -.34312025E+02  d E =-.157746E-01  mag=     1.4054
       N       E                     dE             d eps       ncg     rms          rms(c)
DAV:   1    -0.354227108176E+02   -0.11113E+01   -0.11889E+01  7816   0.552E+01    0.104E+01
DAV:   2    -0.354324045415E+02   -0.96937E-02   -0.12955E+01  8168   0.407E+01    0.947E+00
DAV:   3    -0.344646020221E+02    0.96780E+00   -0.41489E+00  8424   0.266E+01    0.556E+00
DAV:   4    -0.343439193322E+02    0.12068E+00   -0.69968E-01  8260   0.145E+01    0.155E+00
DAV:   5    -0.343433924797E+02    0.52685E-03   -0.75721E-02  9440   0.544E+00    0.187E+00
DAV:   6    -0.343254780210E+02    0.17914E-01   -0.43182E-02  8664   0.452E+00    0.600E-01
DAV:   7    -0.343233416408E+02    0.21364E-02   -0.85703E-03  8684   0.121E+00    0.167E-01
DAV:   8    -0.343233745917E+02   -0.32951E-04   -0.79248E-04  7844   0.351E-01    0.545E-02
DAV:   9    -0.343233634305E+02    0.11161E-04   -0.16283E-04  8592   0.129E-01    0.271E-02
DAV:  10    -0.343233615103E+02    0.19201E-05   -0.22519E-05  8228   0.699E-02    0.705E-03
DAV:  11    -0.343233617297E+02   -0.21937E-06   -0.38434E-06  7920   0.197E-02    0.434E-03
DAV:  12    -0.343233614176E+02    0.31208E-06   -0.63836E-07  8132   0.943E-03    0.138E-03
DAV:  13    -0.343233613723E+02    0.45296E-07   -0.42287E-08  7164   0.240E-03    0.575E-04
DAV:  14    -0.343233613677E+02    0.46166E-08   -0.12500E-08  3960   0.127E-03
   3 F= -.34323361E+02 E0= -.34323869E+02  d E =-.276984E-01  mag=     1.3625
       N       E                     dE             d eps       ncg     rms          rms(c)
DAV:   1    -0.342346154426E+02    0.88746E-01   -0.23251E+00 10288   0.530E+01    0.126E+00
DAV:   2    -0.343368177463E+02   -0.10220E+00   -0.11553E+00  7880   0.873E+00    0.120E+00
DAV:   3    -0.343422944332E+02   -0.54767E-02   -0.10155E-01  8368   0.682E+00    0.163E+00
DAV:   4    -0.343286660831E+02    0.13628E-01   -0.32108E-02  8364   0.390E+00    0.361E-01
DAV:   5    -0.343286647894E+02    0.12937E-05   -0.65839E-03 10280   0.146E+00    0.503E-01
DAV:   6    -0.343275999107E+02    0.10649E-02   -0.52161E-03  8700   0.175E+00    0.247E-01
DAV:   7    -0.343272742197E+02    0.32569E-03   -0.93316E-04  8356   0.647E-01    0.373E-02
DAV:   8    -0.343272724056E+02    0.18141E-05   -0.17490E-04  8180   0.128E-01    0.164E-02
DAV:   9    -0.343272737931E+02   -0.13874E-05   -0.13941E-05  8320   0.402E-02    0.800E-03
DAV:  10    -0.343272735512E+02    0.24187E-06   -0.20197E-06  9008   0.165E-02    0.358E-03
DAV:  11    -0.343272733717E+02    0.17955E-06   -0.42228E-07  8032   0.849E-03    0.109E-03
DAV:  12    -0.343272733410E+02    0.30625E-07   -0.69243E-08  7212   0.304E-03    0.600E-04
DAV:  13    -0.343272733309E+02    0.10165E-07   -0.66589E-09  4060   0.122E-03    0.172E-04
DAV:  14    -0.343272733245E+02    0.63810E-08   -0.26945E-09  3844   0.415E-04
   4 F= -.34327273E+02 E0= -.34327777E+02  d E =-.391196E-02  mag=     1.3504
       N       E                     dE             d eps       ncg     rms          rms(c)
DAV:   1    -0.342914572866E+02    0.35816E-01   -0.89266E-01 10144   0.331E+01    0.783E-01
DAV:   2    -0.343314776758E+02   -0.40020E-01   -0.45211E-01  7824   0.546E+00    0.732E-01
DAV:   3    -0.343337878348E+02   -0.23102E-02   -0.39714E-02  8312   0.436E+00    0.102E+00
DAV:   4    -0.343285293026E+02    0.52585E-02   -0.12638E-02  8288   0.258E+00    0.222E-01
DAV:   5    -0.343283166047E+02    0.21270E-03   -0.22435E-03 10392   0.739E-01    0.238E-01
DAV:   6    -0.343282329307E+02    0.83674E-04   -0.18208E-03  8648   0.106E+00    0.207E-01
DAV:   7    -0.343280001465E+02    0.23278E-03   -0.48357E-04  8388   0.518E-01    0.244E-02
DAV:   8    -0.343280000780E+02    0.68514E-07   -0.78935E-05  8416   0.799E-02    0.109E-02
DAV:   9    -0.343280003735E+02   -0.29554E-06   -0.58046E-06  8376   0.261E-02    0.554E-03
DAV:  10    -0.343280001191E+02    0.25448E-06   -0.93717E-07  9328   0.119E-02    0.264E-03
DAV:  11    -0.343279999709E+02    0.14817E-06   -0.21185E-07  8168   0.667E-03    0.716E-04
DAV:  12    -0.343279999593E+02    0.11543E-07   -0.30182E-08  5540   0.194E-03    0.398E-04
DAV:  13    -0.343279999510E+02    0.82982E-08   -0.32530E-09  3880   0.854E-04
   5 F= -.34328000E+02 E0= -.34328489E+02  d E =-.463858E-02  mag=     1.3431
       N       E                     dE             d eps       ncg     rms          rms(c)
DAV:   1    -0.343256816814E+02    0.23183E-02   -0.13237E-01  8292   0.101E+01    0.509E-01
DAV:   2    -0.343296250531E+02   -0.39434E-02   -0.66909E-02  7892   0.244E+00    0.365E-01
DAV:   3    -0.343304304977E+02   -0.80544E-03   -0.89937E-03  8436   0.225E+00    0.602E-01
DAV:   4    -0.343286422918E+02    0.17882E-02   -0.55999E-03  8316   0.176E+00    0.188E-01
DAV:   5    -0.343284010207E+02    0.24127E-03   -0.10138E-03  9824   0.507E-01    0.126E-01
DAV:   6    -0.343283678480E+02    0.33173E-04   -0.41183E-04  8696   0.543E-01    0.931E-02
DAV:   7    -0.343283227159E+02    0.45132E-04   -0.10384E-04  8144   0.246E-01    0.115E-02
DAV:   8    -0.343283238416E+02   -0.11257E-05   -0.16968E-05  8216   0.377E-02    0.548E-03
DAV:   9    -0.343283242227E+02   -0.38109E-06   -0.84824E-07  9724   0.108E-02    0.251E-03
DAV:  10    -0.343283244142E+02   -0.19151E-06   -0.99110E-08  8820   0.401E-03    0.937E-04
DAV:  11    -0.343283244519E+02   -0.37697E-07   -0.18765E-08  4840   0.165E-03    0.406E-04
DAV:  12    -0.343283244655E+02   -0.13566E-07   -0.38682E-09  3848   0.730E-04    0.109E-04
DAV:  13    -0.343283244672E+02   -0.17026E-08   -0.98341E-10  3792   0.361E-04
   6 F= -.34328324E+02 E0= -.34328831E+02  d E =-.324516E-03  mag=     1.3451
       N       E                     dE             d eps       ncg     rms          rms(c)
DAV:   1    -0.343242616284E+02    0.40628E-02   -0.20778E-01  8276   0.126E+01    0.637E-01
DAV:   2    -0.343304887851E+02   -0.62272E-02   -0.10528E-01  7892   0.306E+00    0.456E-01
DAV:   3    -0.343317378498E+02   -0.12491E-02   -0.14102E-02  8428   0.280E+00    0.749E-01
DAV:   4    -0.343289517522E+02    0.27861E-02   -0.87351E-03  8324   0.217E+00    0.235E-01
DAV:   5    -0.343285713773E+02    0.38037E-03   -0.15910E-03  9776   0.637E-01    0.158E-01
DAV:   6    -0.343285197480E+02    0.51629E-04   -0.64358E-04  8700   0.681E-01    0.116E-01
DAV:   7    -0.343284486012E+02    0.71147E-04   -0.16146E-04  8156   0.308E-01    0.142E-02
DAV:   8    -0.343284501471E+02   -0.15459E-05   -0.26611E-05  8144   0.471E-02    0.684E-03
DAV:   9    -0.343284506863E+02   -0.53922E-06   -0.13245E-06  9832   0.135E-02    0.313E-03
DAV:  10    -0.343284509429E+02   -0.25663E-06   -0.15495E-07  9208   0.494E-03    0.116E-03
DAV:  11    -0.343284509900E+02   -0.47061E-07   -0.28986E-08  5800   0.200E-03    0.504E-04
DAV:  12    -0.343284510050E+02   -0.15039E-07   -0.50834E-09  3940   0.859E-04    0.132E-04
DAV:  13    -0.343284510073E+02   -0.22883E-08   -0.13102E-09  3792   0.424E-04
   7 F= -.34328451E+02 E0= -.34328973E+02  d E =-.451056E-03  mag=     1.3468
       N       E                     dE             d eps       ncg     rms          rms(c)
DAV:   1    -0.343408823084E+02   -0.12431E-01   -0.14217E-01  7888   0.413E+00    0.109E+00
DAV:   2    -0.343411244287E+02   -0.24212E-03   -0.13987E-01  8208   0.421E+00    0.103E+00
DAV:   3    -0.343324226535E+02    0.87018E-02   -0.45875E-02  8368   0.399E+00    0.916E-01
DAV:   4    -0.343287105381E+02    0.37121E-02   -0.14915E-02  7888   0.258E+00    0.164E-01
DAV:   5    -0.343286807003E+02    0.29838E-04   -0.18176E-03  8344   0.581E-01    0.192E-01
DAV:   6    -0.343285172292E+02    0.16347E-03   -0.47160E-04  8352   0.496E-01    0.743E-02
DAV:   7    -0.343284726596E+02    0.44570E-04   -0.14948E-04  8092   0.137E-01    0.161E-02
DAV:   8    -0.343284715247E+02    0.11349E-05   -0.13266E-05  8452   0.368E-02    0.864E-03
DAV:   9    -0.343284709796E+02    0.54509E-06   -0.18308E-06  7908   0.144E-02    0.221E-03
DAV:  10    -0.343284707730E+02    0.20659E-06   -0.21208E-07  9008   0.552E-03    0.116E-03
DAV:  11    -0.343284706981E+02    0.74877E-07   -0.25982E-08  5700   0.259E-03    0.317E-04
DAV:  12    -0.343284706713E+02    0.26805E-07   -0.83348E-09  3856   0.941E-04    0.203E-04
DAV:  13    -0.343284706697E+02    0.15862E-08   -0.16027E-09  3860   0.558E-04
   8 F= -.34328471E+02 E0= -.34328986E+02  d E =-.196624E-04  mag=     1.3423
       N       E                     dE             d eps       ncg     rms          rms(c)
DAV:   1    -0.343305325499E+02   -0.20619E-02   -0.23258E-02  7884   0.167E+00    0.442E-01
DAV:   2    -0.343305886625E+02   -0.56113E-04   -0.23248E-02  8232   0.171E+00    0.421E-01
DAV:   3    -0.343291880862E+02    0.14006E-02   -0.76588E-03  8352   0.166E+00    0.381E-01
DAV:   4    -0.343285260186E+02    0.66207E-03   -0.25319E-03  7884   0.118E+00    0.643E-02
DAV:   5    -0.343285140389E+02    0.11980E-04   -0.29928E-04  8012   0.200E-01    0.616E-02
DAV:   6    -0.343284997738E+02    0.14265E-04   -0.55858E-05  8172   0.164E-01    0.325E-02
DAV:   7    -0.343284916209E+02    0.81529E-05   -0.24861E-05  7988   0.625E-02    0.695E-03
DAV:   8    -0.343284925236E+02   -0.90278E-06   -0.29876E-06  8260   0.169E-02    0.379E-03
DAV:   9    -0.343284927102E+02   -0.18656E-06   -0.38859E-07  8016   0.671E-03    0.101E-03
DAV:  10    -0.343284927759E+02   -0.65724E-07   -0.51238E-08  6604   0.235E-03    0.502E-04
DAV:  11    -0.343284928132E+02   -0.37235E-07   -0.57513E-09  3916   0.103E-03    0.146E-04
DAV:  12    -0.343284928242E+02   -0.11027E-07   -0.22644E-09  3824   0.456E-04    0.988E-05
DAV:  13    -0.343284928251E+02   -0.91677E-09   -0.44106E-10  3784   0.267E-04
   9 F= -.34328493E+02 E0= -.34329011E+02  d E =-.418178E-04  mag=     1.3441
       N       E                     dE             d eps       ncg     rms          rms(c)
DAV:   1    -0.343280531038E+02    0.43972E-03   -0.11985E-02 10448   0.365E+00    0.102E-01
DAV:   2    -0.343285645413E+02   -0.51144E-03   -0.59810E-03  7740   0.662E-01    0.972E-02
DAV:   3    -0.343285946531E+02   -0.30112E-04   -0.51648E-04  8620   0.515E-01    0.117E-01
DAV:   4    -0.343285170492E+02    0.77604E-04   -0.18932E-04  8788   0.311E-01    0.292E-02
DAV:   5    -0.343285111917E+02    0.58575E-05   -0.37836E-05 10464   0.965E-02    0.248E-02
DAV:   6    -0.343285117084E+02   -0.51668E-06   -0.23543E-05  8608   0.132E-01    0.253E-02
DAV:   7    -0.343285082932E+02    0.34152E-05   -0.60143E-06  8452   0.675E-02    0.291E-03
DAV:   8    -0.343285083626E+02   -0.69373E-07   -0.91790E-07  8716   0.853E-03    0.122E-03
DAV:   9    -0.343285083929E+02   -0.30319E-07   -0.59959E-08  7144   0.284E-03    0.629E-04
DAV:  10    -0.343285084237E+02   -0.30748E-07   -0.70412E-09  3808   0.124E-03    0.198E-04
DAV:  11    -0.343285084326E+02   -0.89130E-08   -0.26286E-09  3756   0.503E-04
  10 F= -.34328508E+02 E0= -.34329026E+02  d E =-.156075E-04  mag=     1.3434
       N       E                     dE             d eps       ncg     rms          rms(c)
DAV:   1    -0.343281511042E+02    0.35732E-03   -0.94568E-03 10444   0.324E+00    0.903E-02
DAV:   2    -0.343285543736E+02   -0.40327E-03   -0.47184E-03  7740   0.588E-01    0.862E-02
DAV:   3    -0.343285783121E+02   -0.23939E-04   -0.40685E-04  8624   0.457E-01    0.104E-01
DAV:   4    -0.343285171496E+02    0.61162E-04   -0.14924E-04  8788   0.277E-01    0.260E-02
DAV:   5    -0.343285124052E+02    0.47444E-05   -0.29652E-05 10488   0.846E-02    0.215E-02
DAV:   6    -0.343285130240E+02   -0.61875E-06   -0.18450E-05  8620   0.116E-01    0.229E-02
DAV:   7    -0.343285102487E+02    0.27753E-05   -0.48626E-06  8460   0.610E-02    0.259E-03
DAV:   8    -0.343285103082E+02   -0.59554E-07   -0.72782E-07  8712   0.757E-03    0.109E-03
DAV:   9    -0.343285103349E+02   -0.26725E-07   -0.47363E-08  6676   0.255E-03    0.561E-04
DAV:  10    -0.343285103607E+02   -0.25782E-07   -0.59232E-09  3808   0.113E-03    0.175E-04
DAV:  11    -0.343285103683E+02   -0.76034E-08   -0.21445E-09  3760   0.458E-04
  11 F= -.34328510E+02 E0= -.34329027E+02  d E =-.175432E-04  mag=     1.3428
