       N       E                     dE             d eps       ncg     rms          rms(c)
DAV:   1     0.394521355908E+03    0.39452E+03   -0.28186E+04  6664   0.127E+03
DAV:   2    -0.193925491245E+02   -0.41391E+03   -0.39217E+03  5880   0.357E+02
DAV:   3    -0.430127921237E+02   -0.23620E+02   -0.22284E+02  7048   0.910E+01
DAV:   4    -0.437009886800E+02   -0.68820E+00   -0.68412E+00  6600   0.162E+01
DAV:   5    -0.437230091668E+02   -0.22020E-01   -0.22011E-01  7352   0.306E+00    0.371E+01
DAV:   6    -0.950635395194E+02   -0.51341E+02   -0.38790E+02  7016   0.256E+02    0.515E+01
DAV:   7    -0.441891050933E+02    0.50874E+02   -0.14294E+02  6976   0.114E+02    0.216E+01
DAV:   8    -0.372844797580E+02    0.69046E+01   -0.20868E+01  7968   0.650E+01    0.374E+00
DAV:   9    -0.376572592808E+02   -0.37278E+00   -0.32430E+00  8208   0.115E+01    0.404E+00
DAV:  10    -0.375731080624E+02    0.84151E-01   -0.79400E-01  7672   0.105E+01    0.121E+00
DAV:  11    -0.375668576202E+02    0.62504E-02   -0.54658E-02  7176   0.274E+00    0.334E-01
DAV:  12    -0.375682738030E+02   -0.14162E-02   -0.10162E-02  8456   0.935E-01    0.446E-01
DAV:  13    -0.375665621174E+02    0.17117E-02   -0.41801E-03  7584   0.796E-01    0.100E-01
DAV:  14    -0.375665298853E+02    0.32232E-04   -0.57737E-04  8576   0.186E-01    0.166E-02
DAV:  15    -0.375665325225E+02   -0.26372E-05   -0.24045E-05  6512   0.327E-02    0.109E-02
DAV:  16    -0.375665329737E+02   -0.45121E-06   -0.29892E-06  8240   0.127E-02    0.108E-02
DAV:  17    -0.375665314041E+02    0.15696E-05   -0.26450E-06  7632   0.190E-02    0.256E-03
DAV:  18    -0.375665310720E+02    0.33214E-06   -0.64981E-07  8384   0.699E-03    0.157E-03
DAV:  19    -0.375665310557E+02    0.16265E-07   -0.60505E-08  6224   0.223E-03    0.876E-04
DAV:  20    -0.375665310484E+02    0.73396E-08   -0.14383E-08  3696   0.147E-03
   1 F= -.37566531E+02 E0= -.37566896E+02  d E =-.375665E+02  mag=     0.0000
       N       E                     dE             d eps       ncg     rms          rms(c)
DAV:   1    -0.283845690395E+03   -0.24628E+03   -0.49459E+03  5600   0.855E+02    0.111E+02
DAV:   2    -0.588027450172E+02    0.22504E+03   -0.12671E+03  5920   0.239E+02    0.229E+01
DAV:   3    -0.767617307524E+02   -0.17959E+02   -0.19137E+02  6416   0.132E+02    0.446E+01
DAV:   4    -0.422018337056E+02    0.34560E+02   -0.11391E+02  7056   0.873E+01    0.495E+00
DAV:   5    -0.423656256465E+02   -0.16379E+00   -0.17828E+01  6592   0.377E+01    0.148E+01
DAV:   6    -0.403775142773E+02    0.19881E+01   -0.73487E+00  7600   0.317E+01    0.564E+00
DAV:   7    -0.401582228619E+02    0.21929E+00   -0.15435E+00  7136   0.881E+00    0.145E+00
DAV:   8    -0.401437174497E+02    0.14505E-01   -0.59517E-02  6736   0.167E+00    0.507E-01
DAV:   9    -0.401418015414E+02    0.19159E-02   -0.69956E-03  8592   0.612E-01    0.682E-02
DAV:  10    -0.401419114290E+02   -0.10989E-03   -0.87216E-04  7872   0.177E-01    0.869E-02
DAV:  11    -0.401418812336E+02    0.30195E-04   -0.12340E-04  6456   0.621E-02    0.701E-02
DAV:  12    -0.401418549042E+02    0.26329E-04   -0.18116E-04  7888   0.979E-02    0.243E-02
DAV:  13    -0.401418504255E+02    0.44787E-05   -0.19039E-05  6928   0.314E-02    0.266E-03
DAV:  14    -0.401418503688E+02    0.56679E-07   -0.37948E-07  6944   0.404E-03    0.206E-03
DAV:  15    -0.401418502497E+02    0.11907E-06   -0.21028E-07  6760   0.345E-03    0.899E-04
DAV:  16    -0.401418502170E+02    0.32766E-07   -0.32771E-08  4328   0.145E-03    0.139E-04
DAV:  17    -0.401418501975E+02    0.19500E-07   -0.58550E-09  3744   0.707E-04    0.245E-04
DAV:  18    -0.401418501972E+02    0.30468E-09   -0.34738E-09  3608   0.541E-04
   2 F= -.40141850E+02 E0= -.40141521E+02  d E =-.257532E+01  mag=    -0.0000
       N       E                     dE             d eps       ncg     rms          rms(c)
DAV:   1    -0.204512558416E+03   -0.16437E+03   -0.13567E+03  7168   0.345E+02    0.120E+02
DAV:   2    -0.372783959781E+03   -0.16827E+03   -0.47791E+03  9768   0.394E+02    0.110E+02
DAV:   3    -0.819294856885E+02    0.29085E+03   -0.15411E+03  7784   0.232E+02    0.392E+01
DAV:   4    -0.606585771850E+02    0.21271E+02   -0.17025E+02  6768   0.806E+01    0.242E+01
DAV:   5    -0.445043157391E+02    0.16154E+02   -0.33830E+01  7928   0.579E+01    0.886E+00
DAV:   6    -0.475389845296E+02   -0.30347E+01   -0.32006E+01  8280   0.475E+01    0.274E+01
DAV:   7    -0.432033467989E+02    0.43356E+01   -0.14841E+01  7424   0.322E+01    0.234E+00
DAV:   8    -0.432151870504E+02   -0.11840E-01   -0.66034E-01  6432   0.464E+00    0.290E+00
DAV:   9    -0.431451357326E+02    0.70051E-01   -0.35064E-01  6424   0.639E+00    0.321E-01
DAV:  10    -0.431669457906E+02   -0.21810E-01   -0.95099E-02  8384   0.256E+00    0.177E+00
DAV:  11    -0.431455691320E+02    0.21377E-01   -0.43363E-02  7512   0.199E+00    0.502E-01
DAV:  12    -0.431448841718E+02    0.68496E-03   -0.25776E-02  8088   0.129E+00    0.461E-01
DAV:  13    -0.431436077443E+02    0.12764E-02   -0.29387E-03  7392   0.507E-01    0.203E-01
DAV:  14    -0.431433642493E+02    0.24350E-03   -0.46003E-04  8320   0.170E-01    0.924E-02
DAV:  15    -0.431432731026E+02    0.91147E-04   -0.23243E-04  7976   0.125E-01    0.520E-03
DAV:  16    -0.431432743107E+02   -0.12081E-05   -0.17877E-05  6648   0.235E-02    0.199E-03
DAV:  17    -0.431432746050E+02   -0.29430E-06   -0.70762E-07  7328   0.698E-03    0.184E-03
DAV:  18    -0.431432746336E+02   -0.28638E-07   -0.32099E-07  7672   0.492E-03    0.168E-03
DAV:  19    -0.431432747213E+02   -0.87678E-07   -0.45921E-08  5752   0.192E-03    0.793E-04
DAV:  20    -0.431432747669E+02   -0.45608E-07   -0.20309E-08  3816   0.132E-03    0.613E-05
DAV:  21    -0.431432747723E+02   -0.53433E-08   -0.43175E-09  3392   0.352E-04
   3 F= -.43143275E+02 E0= -.43143145E+02  d E =-.557674E+01  mag=     0.0000
       N       E                     dE             d eps       ncg     rms          rms(c)
DAV:   1    -0.432159955780E+02   -0.72721E-01   -0.51490E-01  6464   0.785E+00    0.328E+00
DAV:   2    -0.438917240372E+02   -0.67573E+00   -0.43405E+00  7344   0.213E+01    0.856E+00
DAV:   3    -0.431390411984E+02    0.75268E+00   -0.20012E+00  7312   0.174E+01    0.402E-01
DAV:   4    -0.431463180946E+02   -0.72769E-02   -0.11233E-01  6320   0.150E+00    0.459E-01
DAV:   5    -0.431451551484E+02    0.11629E-02   -0.32044E-03  7312   0.476E-01    0.147E-01
DAV:   6    -0.431450149208E+02    0.14023E-03   -0.72496E-04  8048   0.243E-01    0.258E-02
DAV:   7    -0.431450122916E+02    0.26292E-05   -0.37764E-05  6576   0.501E-02    0.628E-03
DAV:   8    -0.431450119212E+02    0.37032E-06   -0.29182E-06  6568   0.126E-02    0.124E-03
DAV:   9    -0.431450117497E+02    0.17156E-06   -0.27833E-07  7120   0.467E-03    0.168E-03
DAV:  10    -0.431450116497E+02    0.99941E-07   -0.47817E-08  5344   0.230E-03    0.263E-04
DAV:  11    -0.431450116305E+02    0.19224E-07   -0.36187E-09  3840   0.379E-04    0.471E-05
DAV:  12    -0.431450116255E+02    0.50104E-08   -0.93584E-10  3552   0.193E-04
   4 F= -.43145012E+02 E0= -.43144906E+02  d E =-.557848E+01  mag=    -0.0000
       N       E                     dE             d eps       ncg     rms          rms(c)
DAV:   1    -0.431515572225E+02   -0.65456E-02   -0.47763E-02  6448   0.241E+00    0.981E-01
DAV:   2    -0.432166521958E+02   -0.65095E-01   -0.39604E-01  7424   0.642E+00    0.288E+00
DAV:   3    -0.431446672144E+02    0.71985E-01   -0.23235E-01  7344   0.522E+00    0.101E-01
DAV:   4    -0.431451366925E+02   -0.46948E-03   -0.72208E-03  5968   0.352E-01    0.130E-01
DAV:   5    -0.431450304575E+02    0.10624E-03   -0.26582E-04  7728   0.147E-01    0.287E-02
DAV:   6    -0.431450258734E+02    0.45841E-05   -0.27752E-05  8032   0.386E-02    0.461E-03
DAV:   7    -0.431450256171E+02    0.25629E-06   -0.13345E-06  6576   0.100E-02    0.803E-04
DAV:   8    -0.431450255474E+02    0.69759E-07   -0.61125E-08  6448   0.177E-03    0.478E-04
DAV:   9    -0.431450254673E+02    0.80025E-07   -0.41124E-09  4064   0.495E-04    0.136E-04
DAV:  10    -0.431450254562E+02    0.11147E-07   -0.15009E-09  3600   0.301E-04    0.229E-05
DAV:  11    -0.431450254522E+02    0.40254E-08   -0.30871E-10  3328   0.119E-04
   5 F= -.43145025E+02 E0= -.43144926E+02  d E =-.557849E+01  mag=    -0.0000
       N       E                     dE             d eps       ncg     rms          rms(c)
DAV:   1    -0.431658899924E+02   -0.20865E-01   -0.59180E+00  6128   0.679E+01    0.312E+00
DAV:   2    -0.438323156199E+02   -0.66643E+00   -0.49188E+00  7840   0.205E+01    0.696E+00
DAV:   3    -0.433187385928E+02    0.51358E+00   -0.16765E+00  7200   0.159E+01    0.752E-01
DAV:   4    -0.433193467786E+02   -0.60819E-03   -0.79630E-02  7056   0.143E+00    0.534E-01
DAV:   5    -0.433177067111E+02    0.16401E-02   -0.18108E-02  6816   0.134E+00    0.269E-01
DAV:   6    -0.433170935900E+02    0.61312E-03   -0.24931E-03  6880   0.495E-01    0.564E-02
DAV:   7    -0.433170680213E+02    0.25569E-04   -0.26530E-04  6592   0.930E-02    0.177E-02
DAV:   8    -0.433170690173E+02   -0.99595E-06   -0.20134E-05  6560   0.257E-02    0.106E-02
DAV:   9    -0.433170684732E+02    0.54401E-06   -0.38356E-06  7552   0.227E-02    0.234E-03
DAV:  10    -0.433170683612E+02    0.11206E-06   -0.29543E-07  6720   0.467E-03    0.519E-04
DAV:  11    -0.433170683229E+02    0.38280E-07   -0.19752E-08  4864   0.115E-03    0.127E-04
DAV:  12    -0.433170683186E+02    0.43074E-08   -0.42687E-09  3736   0.507E-04
   6 F= -.43317068E+02 E0= -.43316969E+02  d E =-.172043E+00  mag=     0.0000
       N       E                     dE             d eps       ncg     rms          rms(c)
DAV:   1    -0.423500435001E+02    0.96702E+00   -0.53935E+01  7104   0.201E+02    0.103E+01
DAV:   2    -0.482444177730E+02   -0.58944E+01   -0.51139E+01  7680   0.696E+01    0.179E+01
DAV:   3    -0.435227790703E+02    0.47216E+01   -0.12355E+01  7248   0.512E+01    0.240E+00
DAV:   4    -0.435694654457E+02   -0.46686E-01   -0.17963E+00  8112   0.781E+00    0.251E+00
DAV:   5    -0.435535194791E+02    0.15946E-01   -0.52202E-01  7072   0.764E+00    0.171E+00
DAV:   6    -0.435264856460E+02    0.27034E-01   -0.68384E-02  7424   0.295E+00    0.377E-01
DAV:   7    -0.435256743634E+02    0.81128E-03   -0.79502E-03  7736   0.596E-01    0.753E-02
DAV:   8    -0.435256642065E+02    0.10157E-04   -0.51649E-04  8112   0.178E-01    0.416E-02
DAV:   9    -0.435256670239E+02   -0.28174E-05   -0.13967E-04  7728   0.132E-01    0.249E-02
DAV:  10    -0.435256605966E+02    0.64273E-05   -0.24534E-05  7664   0.516E-02    0.175E-03
DAV:  11    -0.435256606081E+02   -0.11501E-07   -0.12907E-06  6368   0.758E-03    0.551E-04
DAV:  12    -0.435256605951E+02    0.12957E-07   -0.57567E-08  6688   0.194E-03    0.493E-04
DAV:  13    -0.435256605931E+02    0.19973E-08   -0.44568E-09  3824   0.686E-04
   7 F= -.43525661E+02 E0= -.43525327E+02  d E =-.380635E+00  mag=    -0.0000
       N       E                     dE             d eps       ncg     rms          rms(c)
DAV:   1    -0.442388884995E+02   -0.71323E+00   -0.37534E+01  6544   0.153E+02    0.128E+01
DAV:   2    -0.530990224791E+02   -0.88601E+01   -0.52973E+01  7792   0.868E+01    0.388E+01
DAV:   3    -0.439322643504E+02    0.91668E+01   -0.37771E+01  7504   0.562E+01    0.711E+00
DAV:   4    -0.436747242494E+02    0.25754E+00   -0.20043E+00  6848   0.133E+01    0.264E+00
DAV:   5    -0.436280570109E+02    0.46667E-01   -0.11387E-01  8560   0.235E+00    0.132E+00
DAV:   6    -0.436124856667E+02    0.15571E-01   -0.38543E-02  8784   0.193E+00    0.136E-01
DAV:   7    -0.436127495025E+02   -0.26384E-03   -0.53347E-03  6416   0.430E-01    0.995E-02
DAV:   8    -0.436126772939E+02    0.72209E-04   -0.42021E-04  7120   0.215E-01    0.255E-02
DAV:   9    -0.436126825346E+02   -0.52406E-05   -0.20649E-05  6400   0.425E-02    0.836E-03
DAV:  10    -0.436126831482E+02   -0.61363E-06   -0.19950E-06  8296   0.137E-02    0.223E-03
DAV:  11    -0.436126831489E+02   -0.71304E-09   -0.25269E-07  6480   0.521E-03    0.893E-04
DAV:  12    -0.436126831247E+02    0.24172E-07   -0.29853E-08  4920   0.140E-03    0.332E-04
DAV:  13    -0.436126831291E+02   -0.43383E-08   -0.75191E-09  3736   0.625E-04
   8 F= -.43612683E+02 E0= -.43612156E+02  d E =-.870225E-01  mag=     0.0000
       N       E                     dE             d eps       ncg     rms          rms(c)
DAV:   1    -0.436538909459E+02   -0.41208E-01   -0.15708E+00  6672   0.323E+01    0.316E+00
DAV:   2    -0.442841853927E+02   -0.63029E+00   -0.40420E+00  7616   0.213E+01    0.954E+00
DAV:   3    -0.436208795807E+02    0.66331E+00   -0.29849E+00  7360   0.167E+01    0.111E+00
DAV:   4    -0.436169644571E+02    0.39151E-02   -0.77546E-02  6240   0.203E+00    0.494E-01
DAV:   5    -0.436155667875E+02    0.13977E-02   -0.10913E-02  7984   0.100E+00    0.119E-01
DAV:   6    -0.436154134096E+02    0.15338E-03   -0.75949E-04  6640   0.273E-01    0.377E-02
DAV:   7    -0.436153926686E+02    0.20741E-04   -0.83021E-05  6752   0.593E-02    0.107E-02
DAV:   8    -0.436153933097E+02   -0.64112E-06   -0.95542E-06  7072   0.257E-02    0.530E-03
DAV:   9    -0.436153934710E+02   -0.16125E-06   -0.68493E-07  6704   0.995E-03    0.186E-03
DAV:  10    -0.436153935043E+02   -0.33323E-07   -0.13041E-07  7344   0.301E-03    0.454E-04
DAV:  11    -0.436153935342E+02   -0.29884E-07   -0.74599E-09  4208   0.581E-04    0.122E-04
DAV:  12    -0.436153935349E+02   -0.70395E-09   -0.19307E-09  3712   0.308E-04
   9 F= -.43615394E+02 E0= -.43614782E+02  d E =-.897329E-01  mag=     0.0000
       N       E                     dE             d eps       ncg     rms          rms(c)
DAV:   1    -0.432095518514E+02    0.40584E+00   -0.20551E+01  8944   0.133E+02    0.515E+00
DAV:   2    -0.451539739782E+02   -0.19444E+01   -0.16236E+01  7776   0.387E+01    0.110E+01
DAV:   3    -0.436662784219E+02    0.14877E+01   -0.40364E+00  7264   0.275E+01    0.989E-01
DAV:   4    -0.436829768859E+02   -0.16698E-01   -0.35891E-01  6928   0.294E+00    0.938E-01
DAV:   5    -0.436802537188E+02    0.27232E-02   -0.64992E-02  7296   0.275E+00    0.655E-01
DAV:   6    -0.436762549696E+02    0.39987E-02   -0.95317E-03  7616   0.103E+00    0.178E-01
DAV:   7    -0.436760804626E+02    0.17451E-03   -0.86042E-04  6816   0.183E-01    0.949E-02
DAV:   8    -0.436760022331E+02    0.78230E-04   -0.35185E-04  7856   0.184E-01    0.135E-02
DAV:   9    -0.436760042145E+02   -0.19814E-05   -0.21774E-05  6848   0.388E-02    0.761E-03
DAV:  10    -0.436760034939E+02    0.72057E-06   -0.20015E-06  7552   0.116E-02    0.222E-03
DAV:  11    -0.436760034389E+02    0.54993E-07   -0.38285E-07  8128   0.500E-03    0.495E-04
DAV:  12    -0.436760034413E+02   -0.24620E-08   -0.11919E-08  4224   0.125E-03
  10 F= -.43676003E+02 E0= -.43675767E+02  d E =-.606099E-01  mag=     0.0000
       N       E                     dE             d eps       ncg     rms          rms(c)
DAV:   1    -0.426146093681E+02    0.10614E+01   -0.57954E+01  9168   0.219E+02    0.944E+00
DAV:   2    -0.484135142584E+02   -0.57989E+01   -0.50483E+01  7184   0.701E+01    0.182E+01
DAV:   3    -0.437306646790E+02    0.46828E+01   -0.11431E+01  7184   0.496E+01    0.310E+00
DAV:   4    -0.437374150165E+02   -0.67503E-02   -0.17502E+00  8256   0.828E+00    0.180E+00
DAV:   5    -0.437536268347E+02   -0.16212E-01   -0.39441E-01  7216   0.675E+00    0.193E+00
DAV:   6    -0.437150325621E+02    0.38594E-01   -0.96184E-02  7616   0.333E+00    0.342E-01
DAV:   7    -0.437145204290E+02    0.51213E-03   -0.68212E-03  6480   0.492E-01    0.138E-01
DAV:   8    -0.437143661628E+02    0.15427E-03   -0.53861E-04  7440   0.181E-01    0.711E-02
DAV:   9    -0.437143370132E+02    0.29150E-04   -0.11764E-04  7616   0.795E-02    0.353E-02
DAV:  10    -0.437143252959E+02    0.11717E-04   -0.42507E-05  8672   0.592E-02    0.252E-03
DAV:  11    -0.437143254825E+02   -0.18660E-06   -0.33653E-06  6368   0.104E-02    0.915E-04
DAV:  12    -0.437143254529E+02    0.29578E-07   -0.20071E-07  7472   0.426E-03    0.533E-04
DAV:  13    -0.437143254502E+02    0.27167E-08   -0.20571E-08  4896   0.119E-03
  11 F= -.43714325E+02 E0= -.43713708E+02  d E =-.989319E-01  mag=    -0.0000
       N       E                     dE             d eps       ncg     rms          rms(c)
DAV:   1    -0.421867068882E+02    0.15276E+01   -0.61711E+01  8128   0.217E+02    0.446E+00
DAV:   2    -0.446132685068E+02   -0.24266E+01   -0.22047E+01  6768   0.377E+01    0.105E+01
DAV:   3    -0.438518462066E+02    0.76142E+00   -0.53189E+00  6832   0.228E+01    0.333E+00
DAV:   4    -0.437850579271E+02    0.66788E-01   -0.20710E-01  6704   0.439E+00    0.188E+00
DAV:   5    -0.437568705911E+02    0.28187E-01   -0.14370E-01  7648   0.376E+00    0.386E-01
DAV:   6    -0.437559433877E+02    0.92720E-03   -0.15482E-02  6960   0.129E+00    0.251E-01
DAV:   7    -0.437555475532E+02    0.39583E-03   -0.16530E-03  6832   0.446E-01    0.406E-02
DAV:   8    -0.437555613013E+02   -0.13748E-04   -0.12953E-04  7216   0.788E-02    0.157E-02
DAV:   9    -0.437555630740E+02   -0.17727E-05   -0.13997E-05  7584   0.352E-02    0.482E-03
DAV:  10    -0.437555630065E+02    0.67562E-07   -0.25791E-06  7008   0.170E-02    0.345E-03
DAV:  11    -0.437555629322E+02    0.74289E-07   -0.29754E-07  6992   0.578E-03    0.927E-04
DAV:  12    -0.437555629350E+02   -0.27876E-08   -0.63127E-08  6512   0.211E-03
  12 F= -.43755563E+02 E0= -.43755572E+02  d E =-.412375E-01  mag=     0.0000
       N       E                     dE             d eps       ncg     rms          rms(c)
DAV:   1    -0.434469127346E+02    0.30865E+00   -0.10378E+01  8080   0.940E+01    0.227E+00
DAV:   2    -0.440144376165E+02   -0.56752E+00   -0.48361E+00  7168   0.179E+01    0.577E+00
DAV:   3    -0.437707463359E+02    0.24369E+00   -0.13460E+00  7136   0.120E+01    0.120E+00
DAV:   4    -0.437627749441E+02    0.79714E-02   -0.45097E-02  6480   0.182E+00    0.632E-01
DAV:   5    -0.437595672836E+02    0.32077E-02   -0.13840E-02  7760   0.126E+00    0.117E-01
DAV:   6    -0.437594754290E+02    0.91855E-04   -0.13324E-03  7488   0.355E-01    0.727E-02
DAV:   7    -0.437594497189E+02    0.25710E-04   -0.10599E-04  6896   0.101E-01    0.223E-02
DAV:   8    -0.437594507538E+02   -0.10349E-05   -0.17126E-05  7872   0.354E-02    0.573E-03
DAV:   9    -0.437594513125E+02   -0.55862E-06   -0.13519E-06  7008   0.113E-02    0.124E-03
DAV:  10    -0.437594513357E+02   -0.23291E-07   -0.23756E-07  6752   0.504E-03    0.137E-03
DAV:  11    -0.437594513238E+02    0.11938E-07   -0.41375E-08  5376   0.232E-03    0.222E-04
DAV:  12    -0.437594513220E+02    0.18290E-08   -0.63571E-09  3600   0.721E-04
  13 F= -.43759451E+02 E0= -.43759518E+02  d E =-.451259E-01  mag=     0.0000
       N       E                     dE             d eps       ncg     rms          rms(c)
DAV:   1    -0.433045595215E+02    0.45489E+00   -0.26222E+01  8656   0.147E+02    0.707E+00
DAV:   2    -0.464497134808E+02   -0.31452E+01   -0.25883E+01  7424   0.498E+01    0.142E+01
DAV:   3    -0.437667411017E+02    0.26830E+01   -0.69436E+00  7296   0.379E+01    0.165E+00
DAV:   4    -0.437844935678E+02   -0.17752E-01   -0.66277E-01  7040   0.399E+00    0.926E-01
DAV:   5    -0.437964952872E+02   -0.12002E-01   -0.13905E-01  7136   0.410E+00    0.150E+00
DAV:   6    -0.437755667561E+02    0.20929E-01   -0.41005E-02  8000   0.226E+00    0.431E-01
DAV:   7    -0.437745390985E+02    0.10277E-02   -0.48675E-03  6576   0.395E-01    0.243E-01
DAV:   8    -0.437739558335E+02    0.58326E-03   -0.19138E-03  7936   0.415E-01    0.334E-02
DAV:   9    -0.437739571405E+02   -0.13070E-05   -0.19726E-04  6304   0.717E-02    0.130E-02
DAV:  10    -0.437739561298E+02    0.10107E-05   -0.13214E-05  7680   0.307E-02    0.175E-03
DAV:  11    -0.437739562200E+02   -0.90165E-07   -0.85149E-07  6752   0.516E-03    0.118E-03
DAV:  12    -0.437739562070E+02    0.13006E-07   -0.84411E-08  6816   0.300E-03    0.404E-04
DAV:  13    -0.437739562129E+02   -0.58717E-08   -0.59714E-09  3968   0.666E-04
  14 F= -.43773956E+02 E0= -.43774318E+02  d E =-.145049E-01  mag=    -0.0000
       N       E                     dE             d eps       ncg     rms          rms(c)
DAV:   1    -0.437438849948E+02    0.30071E-01   -0.12023E+00  7088   0.323E+01    0.115E+00
DAV:   2    -0.438434532137E+02   -0.99568E-01   -0.77119E-01  7520   0.802E+00    0.289E+00
DAV:   3    -0.437772111465E+02    0.66242E-01   -0.31126E-01  7344   0.594E+00    0.518E-01
DAV:   4    -0.437758028514E+02    0.14083E-02   -0.98839E-03  6400   0.773E-01    0.281E-01
DAV:   5    -0.437752435896E+02    0.55926E-03   -0.33662E-03  7488   0.600E-01    0.641E-02
DAV:   6    -0.437752055847E+02    0.38005E-04   -0.30727E-04  6688   0.182E-01    0.308E-02
DAV:   7    -0.437752016855E+02    0.38991E-05   -0.21963E-05  6784   0.356E-02    0.119E-02
DAV:   8    -0.437752014835E+02    0.20205E-06   -0.43761E-06  7328   0.197E-02    0.240E-03
DAV:   9    -0.437752015556E+02   -0.72080E-07   -0.24823E-07  6640   0.527E-03    0.633E-04
DAV:  10    -0.437752015931E+02   -0.37555E-07   -0.29302E-08  5440   0.108E-03    0.280E-04
DAV:  11    -0.437752015964E+02   -0.32778E-08   -0.34221E-09  3664   0.439E-04
  15 F= -.43775202E+02 E0= -.43775524E+02  d E =-.157503E-01  mag=    -0.0000
       N       E                     dE             d eps       ncg     rms          rms(c)
DAV:   1    -0.437707127163E+02    0.44889E-02   -0.12504E+00  6640   0.281E+01    0.161E+00
DAV:   2    -0.439117774816E+02   -0.14106E+00   -0.10888E+00  7680   0.107E+01    0.400E+00
DAV:   3    -0.437904696473E+02    0.12131E+00   -0.56166E-01  7408   0.778E+00    0.707E-01
DAV:   4    -0.437852295956E+02    0.52401E-02   -0.22741E-02  6720   0.143E+00    0.116E-01
DAV:   5    -0.437851233087E+02    0.10629E-03   -0.14553E-03  7120   0.246E-01    0.310E-02
DAV:   6    -0.437851170954E+02    0.62133E-05   -0.12107E-04  6528   0.103E-01    0.290E-02
DAV:   7    -0.437851130647E+02    0.40307E-05   -0.18272E-05  8064   0.412E-02    0.652E-03
DAV:   8    -0.437851137204E+02   -0.65566E-06   -0.18404E-06  6528   0.102E-02    0.193E-03
DAV:   9    -0.437851138985E+02   -0.17806E-06   -0.12970E-07  6656   0.259E-03    0.540E-04
DAV:  10    -0.437851139489E+02   -0.50431E-07   -0.13730E-08  4304   0.109E-03    0.225E-04
DAV:  11    -0.437851139595E+02   -0.10555E-07   -0.29702E-09  3776   0.559E-04    0.396E-05
DAV:  12    -0.437851139595E+02   -0.27285E-11   -0.83161E-10  3632   0.204E-04
  16 F= -.43785114E+02 E0= -.43785318E+02  d E =-.991236E-02  mag=    -0.0000
       N       E                     dE             d eps       ncg     rms          rms(c)
DAV:   1    -0.437831834201E+02    0.19305E-02   -0.26008E-01  6656   0.128E+01    0.737E-01
DAV:   2    -0.438113451025E+02   -0.28162E-01   -0.22810E-01  7664   0.490E+00    0.166E+00
DAV:   3    -0.437871066240E+02    0.24238E-01   -0.10741E-01  7360   0.356E+00    0.291E-01
DAV:   4    -0.437862373132E+02    0.86931E-03   -0.43557E-03  6464   0.596E-01    0.536E-02
DAV:   5    -0.437862177286E+02    0.19585E-04   -0.30446E-04  7488   0.118E-01    0.138E-02
DAV:   6    -0.437862165819E+02    0.11467E-05   -0.23667E-05  6560   0.456E-02    0.121E-02
DAV:   7    -0.437862159885E+02    0.59340E-06   -0.32923E-06  7960   0.174E-02    0.288E-03
DAV:   8    -0.437862161976E+02   -0.20909E-06   -0.35605E-07  6384   0.411E-03    0.825E-04
DAV:   9    -0.437862162643E+02   -0.66684E-07   -0.24917E-08  5184   0.147E-03    0.289E-04
DAV:  10    -0.437862162875E+02   -0.23207E-07   -0.72218E-09  3776   0.871E-04    0.104E-04
DAV:  11    -0.437862162907E+02   -0.32287E-08   -0.14122E-09  3584   0.352E-04
  17 F= -.43786216E+02 E0= -.43786284E+02  d E =-.110147E-01  mag=    -0.0000
       N       E                     dE             d eps       ncg     rms          rms(c)
DAV:   1    -0.437935206789E+02   -0.73044E-02   -0.57884E-01  7072   0.151E+01    0.109E+00
DAV:   2    -0.438257938791E+02   -0.32273E-01   -0.33512E-01  7328   0.615E+00    0.182E+00
DAV:   3    -0.437943738779E+02    0.31420E-01   -0.13163E-01  7312   0.427E+00    0.452E-01
DAV:   4    -0.437916513365E+02    0.27225E-02   -0.85771E-03  6560   0.753E-01    0.924E-02
DAV:   5    -0.437916189908E+02    0.32346E-04   -0.91128E-04  7200   0.255E-01    0.243E-02
DAV:   6    -0.437916141983E+02    0.47925E-05   -0.58419E-05  6608   0.832E-02    0.147E-02
DAV:   7    -0.437916133899E+02    0.80837E-06   -0.68291E-06  7456   0.232E-02    0.344E-03
DAV:   8    -0.437916134581E+02   -0.68137E-07   -0.57287E-07  6544   0.545E-03    0.101E-03
DAV:   9    -0.437916133755E+02    0.82538E-07   -0.53390E-08  6544   0.215E-03    0.509E-04
DAV:  10    -0.437916133484E+02    0.27087E-07   -0.81330E-09  3904   0.962E-04    0.578E-05
DAV:  11    -0.437916133462E+02    0.21828E-08   -0.20940E-09  3680   0.398E-04
  18 F= -.43791613E+02 E0= -.43791787E+02  d E =-.539706E-02  mag=    -0.0000
       N       E                     dE             d eps       ncg     rms          rms(c)
DAV:   1    -0.437934721268E+02   -0.18588E-02   -0.18484E-01  7088   0.853E+00    0.631E-01
DAV:   2    -0.438053679443E+02   -0.11896E-01   -0.11687E-01  7392   0.366E+00    0.112E+00
DAV:   3    -0.437936252042E+02    0.11743E-01   -0.48915E-02  7312   0.257E+00    0.254E-01
DAV:   4    -0.437927569283E+02    0.86828E-03   -0.30277E-03  6544   0.456E-01    0.467E-02
DAV:   5    -0.437927537812E+02    0.31471E-05   -0.29157E-04  6816   0.152E-01    0.124E-02
DAV:   6    -0.437927523881E+02    0.13931E-05   -0.15164E-05  6752   0.402E-02    0.725E-03
DAV:   7    -0.437927522364E+02    0.15167E-06   -0.18002E-06  7584   0.109E-02    0.189E-03
DAV:   8    -0.437927522143E+02    0.22118E-07   -0.15867E-07  6432   0.310E-03    0.561E-04
DAV:   9    -0.437927521669E+02    0.47454E-07   -0.12869E-08  4208   0.119E-03    0.214E-04
DAV:  10    -0.437927521530E+02    0.13870E-07   -0.33463E-09  3664   0.565E-04    0.348E-05
DAV:  11    -0.437927521530E+02    0.55479E-10   -0.84037E-10  3408   0.259E-04
  19 F= -.43792752E+02 E0= -.43792584E+02  d E =-.653586E-02  mag=     0.0000
       N       E                     dE             d eps       ncg     rms          rms(c)
DAV:   1    -0.437898730681E+02    0.28791E-02   -0.69805E-01  6688   0.225E+01    0.154E+00
DAV:   2    -0.439181450909E+02   -0.12827E+00   -0.95501E-01  7648   0.105E+01    0.393E+00
DAV:   3    -0.437963924141E+02    0.12175E+00   -0.55918E-01  7376   0.791E+00    0.575E-01
DAV:   4    -0.437945875102E+02    0.18049E-02   -0.17234E-02  6240   0.993E-01    0.241E-01
DAV:   5    -0.437941349659E+02    0.45254E-03   -0.26707E-03  8000   0.479E-01    0.552E-02
DAV:   6    -0.437941079089E+02    0.27057E-04   -0.19277E-04  6496   0.145E-01    0.170E-02
DAV:   7    -0.437941077381E+02    0.17080E-06   -0.17347E-05  6720   0.271E-02    0.122E-02
DAV:   8    -0.437941074592E+02    0.27887E-06   -0.36474E-06  7952   0.182E-02    0.167E-03
DAV:   9    -0.437941076408E+02   -0.18161E-06   -0.19048E-07  6528   0.317E-03    0.542E-04
DAV:  10    -0.437941076912E+02   -0.50423E-07   -0.73905E-09  3952   0.832E-04    0.411E-04
DAV:  11    -0.437941077038E+02   -0.12525E-07   -0.43731E-09  3712   0.774E-04    0.433E-05
DAV:  12    -0.437941077035E+02    0.29922E-09   -0.13610E-09  3472   0.256E-04
  20 F= -.43794108E+02 E0= -.43793995E+02  d E =-.135555E-02  mag=     0.0000
       N       E                     dE             d eps       ncg     rms          rms(c)
DAV:   1    -0.437940791484E+02    0.28555E-04   -0.92370E-03  6736   0.260E+00    0.183E-01
DAV:   2    -0.437958255689E+02   -0.17464E-02   -0.13547E-02  7528   0.124E+00    0.421E-01
DAV:   3    -0.437941443995E+02    0.16812E-02   -0.66917E-03  7336   0.939E-01    0.504E-02
DAV:   4    -0.437941369302E+02    0.74693E-05   -0.22080E-04  6216   0.928E-02    0.258E-02
DAV:   5    -0.437941318270E+02    0.51032E-05   -0.32614E-05  7504   0.559E-02    0.730E-03
DAV:   6    -0.437941312666E+02    0.56036E-06   -0.27592E-06  6616   0.175E-02    0.185E-03
DAV:   7    -0.437941311742E+02    0.92452E-07   -0.27531E-07  6768   0.356E-03    0.121E-03
DAV:   8    -0.437941311422E+02    0.32004E-07   -0.38381E-08  5568   0.181E-03    0.193E-04
DAV:   9    -0.437941311271E+02    0.15096E-07   -0.39245E-09  3600   0.406E-04    0.651E-05
DAV:  10    -0.437941311209E+02    0.61682E-08   -0.61515E-10  3376   0.226E-04
  21 F= -.43794131E+02 E0= -.43794014E+02  d E =-.137897E-02  mag=    -0.0000
       N       E                     dE             d eps       ncg     rms          rms(c)
DAV:   1    -0.437925625816E+02    0.15685E-02   -0.60904E-01  6832   0.224E+01    0.161E+00
DAV:   2    -0.439310303267E+02   -0.13847E+00   -0.10553E+00  7456   0.108E+01    0.365E+00
DAV:   3    -0.437938599817E+02    0.13717E+00   -0.48638E-01  7288   0.852E+00    0.271E-01
DAV:   4    -0.437951016594E+02   -0.12417E-02   -0.18812E-02  6496   0.647E-01    0.269E-01
DAV:   5    -0.437947686756E+02    0.33298E-03   -0.42713E-03  7112   0.706E-01    0.135E-01
DAV:   6    -0.437945928277E+02    0.17585E-03   -0.39829E-04  6904   0.210E-01    0.471E-02
DAV:   7    -0.437945663965E+02    0.26431E-04   -0.94610E-05  7984   0.744E-02    0.101E-02
DAV:   8    -0.437945653676E+02    0.10289E-05   -0.69004E-06  7752   0.201E-02    0.203E-03
DAV:   9    -0.437945653348E+02    0.32809E-07   -0.27423E-07  6968   0.503E-03    0.130E-03
DAV:  10    -0.437945653060E+02    0.28755E-07   -0.16088E-07  6784   0.427E-03    0.586E-04
DAV:  11    -0.437945653070E+02   -0.99953E-09   -0.15904E-08  3944   0.152E-03
  22 F= -.43794565E+02 E0= -.43794443E+02  d E =-.434186E-03  mag=     0.0000
       N       E                     dE             d eps       ncg     rms          rms(c)
DAV:   1    -0.437944467261E+02    0.11858E-03   -0.39486E-02  6784   0.569E+00    0.395E-01
DAV:   2    -0.438029383925E+02   -0.84917E-02   -0.63351E-02  7488   0.267E+00    0.950E-01
DAV:   3    -0.437946298093E+02    0.83086E-02   -0.34235E-02  7304   0.207E+00    0.980E-02
DAV:   4    -0.437946596825E+02   -0.29873E-04   -0.10150E-03  6464   0.182E-01    0.732E-02
DAV:   5    -0.437946300631E+02    0.29619E-04   -0.26390E-04  7344   0.175E-01    0.262E-02
DAV:   6    -0.437946235714E+02    0.64917E-05   -0.21221E-05  6832   0.479E-02    0.736E-03
DAV:   7    -0.437946232105E+02    0.36090E-06   -0.35267E-06  7536   0.134E-02    0.127E-03
DAV:   8    -0.437946232562E+02   -0.45699E-07   -0.17666E-07  6384   0.308E-03    0.820E-04
DAV:   9    -0.437946232613E+02   -0.51377E-08   -0.26554E-08  5216   0.186E-03
  23 F= -.43794623E+02 E0= -.43794503E+02  d E =-.492140E-03  mag=     0.0000
       N       E                     dE             d eps       ncg     rms          rms(c)
DAV:   1    -0.437892490611E+02    0.53742E-02   -0.20620E-01  8304   0.131E+01    0.259E-01
DAV:   2    -0.437964500007E+02   -0.72009E-02   -0.72027E-02  6528   0.199E+00    0.412E-01
DAV:   3    -0.437950155711E+02    0.14344E-02   -0.83922E-03  7312   0.105E+00    0.125E-01
DAV:   4    -0.437948473758E+02    0.16820E-03   -0.44541E-04  7136   0.215E-01    0.415E-02
DAV:   5    -0.437948265841E+02    0.20792E-04   -0.77676E-05  8296   0.745E-02    0.843E-03
DAV:   6    -0.437948266734E+02   -0.89377E-07   -0.10662E-05  6488   0.324E-02    0.625E-03
DAV:   7    -0.437948264740E+02    0.19940E-06   -0.10734E-06  6848   0.118E-02    0.137E-03
DAV:   8    -0.437948265318E+02   -0.57717E-07   -0.93627E-08  6472   0.241E-03    0.330E-04
DAV:   9    -0.437948265475E+02   -0.15741E-07   -0.35195E-09  3720   0.554E-04    0.130E-04
DAV:  10    -0.437948265521E+02   -0.46175E-08   -0.10962E-09  3488   0.348E-04
  24 F= -.43794827E+02 E0= -.43794611E+02  d E =-.203291E-03  mag=    -0.0000
       N       E                     dE             d eps       ncg     rms          rms(c)
DAV:   1    -0.437948239505E+02    0.25970E-05   -0.98133E-05  8304   0.286E-01    0.568E-03
DAV:   2    -0.437948275538E+02   -0.36033E-05   -0.34527E-05  6528   0.441E-02    0.901E-03
DAV:   3    -0.437948267803E+02    0.77341E-06   -0.40000E-06  7312   0.232E-02    0.270E-03
DAV:   4    -0.437948266884E+02    0.91900E-07   -0.21354E-07  6992   0.463E-03    0.904E-04
DAV:   5    -0.437948266709E+02    0.17511E-07   -0.33814E-08  4720   0.163E-03    0.188E-04
DAV:   6    -0.437948266674E+02    0.35316E-08   -0.67712E-09  2992   0.892E-04
  25 F= -.43794827E+02 E0= -.43794613E+02  d E =-.203406E-03  mag=     0.0000
       N       E                     dE             d eps       ncg     rms          rms(c)
DAV:   1    -0.437931048514E+02    0.17218E-02   -0.67219E-02  8288   0.762E+00    0.124E-01
DAV:   2    -0.437955011469E+02   -0.23963E-02   -0.22748E-02  6704   0.113E+00    0.259E-01
DAV:   3    -0.437949048114E+02    0.59634E-03   -0.28662E-03  7120   0.626E-01    0.407E-02
DAV:   4    -0.437949003500E+02    0.44614E-05   -0.10992E-04  6896   0.751E-02    0.249E-02
DAV:   5    -0.437948948096E+02    0.55404E-05   -0.25596E-05  7840   0.661E-02    0.980E-03
DAV:   6    -0.437948942042E+02    0.60538E-06   -0.44053E-06  6912   0.213E-02    0.227E-03
DAV:   7    -0.437948942232E+02   -0.18998E-07   -0.34768E-07  7136   0.387E-03    0.769E-04
DAV:   8    -0.437948942536E+02   -0.30443E-07   -0.15641E-08  4240   0.918E-04    0.204E-04
DAV:   9    -0.437948942608E+02   -0.71404E-08   -0.22881E-09  3456   0.617E-04
  26 F= -.43794894E+02 E0= -.43794670E+02  d E =-.675934E-04  mag=     0.0000
       N       E                     dE             d eps       ncg     rms          rms(c)
DAV:   1    -0.437925080112E+02    0.23862E-02   -0.91034E-02  8304   0.886E+00    0.144E-01
DAV:   2    -0.437957379230E+02   -0.32299E-02   -0.30654E-02  6720   0.131E+00    0.301E-01
DAV:   3    -0.437949330045E+02    0.80492E-03   -0.38677E-03  7136   0.726E-01    0.474E-02
DAV:   4    -0.437949267566E+02    0.62479E-05   -0.14696E-04  6848   0.869E-02    0.289E-02
DAV:   5    -0.437949193075E+02    0.74492E-05   -0.34532E-05  7888   0.763E-02    0.113E-02
DAV:   6    -0.437949184713E+02    0.83612E-06   -0.58712E-06  6912   0.247E-02    0.265E-03
DAV:   7    -0.437949184909E+02   -0.19609E-07   -0.46893E-07  7232   0.452E-03    0.897E-04
DAV:   8    -0.437949185263E+02   -0.35347E-07   -0.21455E-08  4680   0.106E-03    0.238E-04
DAV:   9    -0.437949185327E+02   -0.63992E-08   -0.26563E-09  3600   0.691E-04
  27 F= -.43794919E+02 E0= -.43794684E+02  d E =-.918653E-04  mag=     0.0000
       N       E                     dE             d eps       ncg     rms          rms(c)
DAV:   1    -0.437949302396E+02   -0.11713E-04   -0.57000E-02  6960   0.679E+00    0.498E-01
DAV:   2    -0.438081944158E+02   -0.13264E-01   -0.98869E-02  7472   0.332E+00    0.117E+00
DAV:   3    -0.437948879133E+02    0.13307E-01   -0.50965E-02  7312   0.263E+00    0.102E-01
DAV:   4    -0.437949751806E+02   -0.87267E-04   -0.16658E-03  6480   0.207E-01    0.882E-02
DAV:   5    -0.437949335564E+02    0.41624E-04   -0.41186E-04  7248   0.219E-01    0.357E-02
DAV:   6    -0.437949206623E+02    0.12894E-04   -0.33624E-05  6880   0.608E-02    0.109E-02
DAV:   7    -0.437949187808E+02    0.18814E-05   -0.69267E-06  7904   0.196E-02    0.163E-03
DAV:   8    -0.437949187142E+02    0.66600E-07   -0.31012E-07  6320   0.334E-03    0.864E-04
DAV:   9    -0.437949187124E+02    0.18163E-08   -0.30115E-08  5632   0.191E-03
  28 F= -.43794919E+02 E0= -.43794684E+02  d E =-.179707E-06  mag=     0.0000
       N       E                     dE             d eps       ncg     rms          rms(c)
DAV:   1    -0.437949330442E+02   -0.14330E-04   -0.13317E-02  6864   0.328E+00    0.237E-01
DAV:   2    -0.437979588553E+02   -0.30258E-02   -0.22394E-02  7472   0.159E+00    0.572E-01
DAV:   3    -0.437949328658E+02    0.30260E-02   -0.12291E-02  7312   0.125E+00    0.559E-02
DAV:   4    -0.437949473286E+02   -0.14463E-04   -0.37095E-04  6432   0.105E-01    0.438E-02
DAV:   5    -0.437949372050E+02    0.10124E-04   -0.96056E-05  7376   0.106E-01    0.159E-02
DAV:   6    -0.437949349263E+02    0.22787E-05   -0.74052E-06  6832   0.285E-02    0.456E-03
DAV:   7    -0.437949348541E+02    0.72188E-07   -0.13217E-06  7680   0.832E-03    0.720E-04
DAV:   8    -0.437949348836E+02   -0.29562E-07   -0.59969E-08  6256   0.154E-03    0.461E-04
DAV:   9    -0.437949348803E+02    0.33488E-08   -0.66073E-09  3616   0.997E-04
  29 F= -.43794935E+02 E0= -.43794700E+02  d E =-.163476E-04  mag=     0.0000
       N       E                     dE             d eps       ncg     rms          rms(c)
DAV:   1    -0.437945408265E+02    0.39406E-03   -0.13257E-02  7840   0.343E+00    0.473E-02
DAV:   2    -0.437950197506E+02   -0.47892E-03   -0.46355E-03  6416   0.463E-01    0.912E-02
DAV:   3    -0.437949502000E+02    0.69551E-04   -0.42201E-04  7248   0.239E-01    0.178E-02
DAV:   4    -0.437949492589E+02    0.94113E-06   -0.15000E-05  6960   0.318E-02    0.108E-02
DAV:   5    -0.437949485220E+02    0.73682E-06   -0.38330E-06  7600   0.305E-02    0.407E-03
DAV:   6    -0.437949484928E+02    0.29257E-07   -0.83616E-07  7584   0.863E-03    0.118E-03
DAV:   7    -0.437949485077E+02   -0.14941E-07   -0.73585E-08  6496   0.193E-03    0.382E-04
DAV:   8    -0.437949485239E+02   -0.16133E-07   -0.43083E-09  3152   0.452E-04    0.970E-05
DAV:   9    -0.437949485244E+02   -0.56480E-09   -0.83643E-10  3072   0.494E-04
  30 F= -.43794949E+02 E0= -.43794715E+02  d E =-.136441E-04  mag=     0.0000
       N       E                     dE             d eps       ncg     rms          rms(c)
DAV:   1    -0.437949074296E+02    0.41094E-04   -0.13776E-03  7840   0.111E+00    0.153E-02
DAV:   2    -0.437949569502E+02   -0.49521E-04   -0.48174E-04  6432   0.150E-01    0.295E-02
DAV:   3    -0.437949498310E+02    0.71192E-05   -0.43934E-05  7232   0.771E-02    0.570E-03
DAV:   4    -0.437949497500E+02    0.80965E-07   -0.15865E-06  6960   0.103E-02    0.346E-03
DAV:   5    -0.437949496995E+02    0.50517E-07   -0.39116E-07  7616   0.977E-03    0.130E-03
DAV:   6    -0.437949497140E+02   -0.14507E-07   -0.86015E-08  6544   0.277E-03    0.371E-04
DAV:   7    -0.437949497204E+02   -0.64383E-08   -0.62245E-09  3152   0.614E-04
  31 F= -.43794950E+02 E0= -.43794716E+02  d E =-.148401E-04  mag=     0.0000
