   5   5   0   0
  0.1451297E+02  0.4748214E-09  0.4748214E-09  0.4748214E-09  0.5000000E-15
  1.000000000000000E-004
  CAR 
 unknown system                          
     22.57294065    -58.77038746  301      8.66182243      1.00000000
    -58.770  0.0000E+00  0.0000E+00  0.0000E+00  0.0000E+00
    -58.499  0.0000E+00  0.0000E+00  0.0000E+00  0.0000E+00
    -58.228  0.0000E+00  0.0000E+00  0.0000E+00  0.0000E+00
    -57.957  0.0000E+00  0.0000E+00  0.0000E+00  0.0000E+00
    -57.686  0.0000E+00  0.0000E+00  0.0000E+00  0.0000E+00
    -57.415  0.0000E+00  0.0000E+00  0.0000E+00  0.0000E+00
    -57.144  0.0000E+00  0.0000E+00  0.0000E+00  0.0000E+00
    -56.872  0.0000E+00  0.0000E+00  0.0000E+00  0.0000E+00
    -56.601  0.0000E+00  0.0000E+00  0.0000E+00  0.0000E+00
    -56.330  0.0000E+00  0.0000E+00  0.0000E+00  0.0000E+00
    -56.059  0.0000E+00  0.0000E+00  0.0000E+00  0.0000E+00
    -55.788  0.0000E+00  0.0000E+00  0.0000E+00  0.0000E+00
    -55.517  0.0000E+00  0.0000E+00  0.0000E+00  0.0000E+00
    -55.246  0.0000E+00  0.0000E+00  0.0000E+00  0.0000E+00
    -54.974  0.0000E+00  0.0000E+00  0.3000E+01  0.3000E+01
    -54.703  0.0000E+00  0.0000E+00  0.3000E+01  0.3000E+01
    -54.432  0.0000E+00  0.0000E+00  0.3000E+01  0.3000E+01
    -54.161  0.0000E+00  0.0000E+00  0.3000E+01  0.3000E+01
    -53.890  0.0000E+00  0.0000E+00  0.3000E+01  0.3000E+01
    -53.619  0.0000E+00  0.0000E+00  0.3000E+01  0.3000E+01
    -53.347  0.0000E+00  0.0000E+00  0.3000E+01  0.3000E+01
    -53.076  0.0000E+00  0.0000E+00  0.3000E+01  0.3000E+01
    -52.805  0.0000E+00  0.0000E+00  0.3000E+01  0.3000E+01
    -52.534  0.0000E+00  0.0000E+00  0.3000E+01  0.3000E+01
    -52.263  0.0000E+00  0.0000E+00  0.3000E+01  0.3000E+01
    -51.992  0.0000E+00  0.0000E+00  0.3000E+01  0.3000E+01
    -51.721  0.0000E+00  0.0000E+00  0.3000E+01  0.3000E+01
    -51.449  0.0000E+00  0.0000E+00  0.3000E+01  0.3000E+01
    -51.178  0.0000E+00  0.0000E+00  0.3000E+01  0.3000E+01
    -50.907  0.0000E+00  0.0000E+00  0.3000E+01  0.3000E+01
    -50.636  0.0000E+00  0.0000E+00  0.3000E+01  0.3000E+01
    -50.365  0.0000E+00  0.0000E+00  0.3000E+01  0.3000E+01
    -50.094  0.0000E+00  0.0000E+00  0.3000E+01  0.3000E+01
    -49.823  0.0000E+00  0.0000E+00  0.3000E+01  0.3000E+01
    -49.551  0.0000E+00  0.0000E+00  0.3000E+01  0.3000E+01
    -49.280  0.0000E+00  0.0000E+00  0.3000E+01  0.3000E+01
    -49.009  0.0000E+00  0.0000E+00  0.3000E+01  0.3000E+01
    -48.738  0.0000E+00  0.0000E+00  0.3000E+01  0.3000E+01
    -48.467  0.0000E+00  0.0000E+00  0.3000E+01  0.3000E+01
    -48.196  0.0000E+00  0.0000E+00  0.3000E+01  0.3000E+01
    -47.925  0.0000E+00  0.0000E+00  0.3000E+01  0.3000E+01
    -47.653  0.0000E+00  0.0000E+00  0.3000E+01  0.3000E+01
    -47.382  0.0000E+00  0.0000E+00  0.3000E+01  0.3000E+01
    -47.111  0.0000E+00  0.0000E+00  0.3000E+01  0.3000E+01
    -46.840  0.0000E+00  0.0000E+00  0.3000E+01  0.3000E+01
    -46.569  0.0000E+00  0.0000E+00  0.3000E+01  0.3000E+01
    -46.298  0.0000E+00  0.0000E+00  0.3000E+01  0.3000E+01
    -46.027  0.0000E+00  0.0000E+00  0.3000E+01  0.3000E+01
    -45.755  0.0000E+00  0.0000E+00  0.3000E+01  0.3000E+01
    -45.484  0.0000E+00  0.0000E+00  0.3000E+01  0.3000E+01
    -45.213  0.0000E+00  0.0000E+00  0.3000E+01  0.3000E+01
    -44.942  0.0000E+00  0.0000E+00  0.3000E+01  0.3000E+01
    -44.671  0.0000E+00  0.0000E+00  0.3000E+01  0.3000E+01
    -44.400  0.0000E+00  0.0000E+00  0.3000E+01  0.3000E+01
    -44.129  0.0000E+00  0.0000E+00  0.3000E+01  0.3000E+01
    -43.857  0.0000E+00  0.0000E+00  0.3000E+01  0.3000E+01
    -43.586  0.0000E+00  0.0000E+00  0.3000E+01  0.3000E+01
    -43.315  0.0000E+00  0.0000E+00  0.3000E+01  0.3000E+01
    -43.044  0.0000E+00  0.0000E+00  0.3000E+01  0.3000E+01
    -42.773  0.0000E+00  0.0000E+00  0.3000E+01  0.3000E+01
    -42.502  0.0000E+00  0.0000E+00  0.3000E+01  0.3000E+01
    -42.231  0.0000E+00  0.0000E+00  0.3000E+01  0.3000E+01
    -41.959  0.0000E+00  0.0000E+00  0.3000E+01  0.3000E+01
    -41.688  0.0000E+00  0.0000E+00  0.3000E+01  0.3000E+01
    -41.417  0.0000E+00  0.0000E+00  0.3000E+01  0.3000E+01
    -41.146  0.0000E+00  0.0000E+00  0.3000E+01  0.3000E+01
    -40.875  0.0000E+00  0.0000E+00  0.3000E+01  0.3000E+01
    -40.604  0.0000E+00  0.0000E+00  0.3000E+01  0.3000E+01
    -40.333  0.0000E+00  0.0000E+00  0.3000E+01  0.3000E+01
    -40.061  0.0000E+00  0.0000E+00  0.3000E+01  0.3000E+01
    -39.790  0.0000E+00  0.0000E+00  0.3000E+01  0.3000E+01
    -39.519  0.0000E+00  0.0000E+00  0.3000E+01  0.3000E+01
    -39.248  0.0000E+00  0.0000E+00  0.3000E+01  0.3000E+01
    -38.977  0.0000E+00  0.0000E+00  0.3000E+01  0.3000E+01
    -38.706  0.0000E+00  0.0000E+00  0.3000E+01  0.3000E+01
    -38.435  0.0000E+00  0.0000E+00  0.3000E+01  0.3000E+01
    -38.163  0.0000E+00  0.0000E+00  0.3000E+01  0.3000E+01
    -37.892  0.0000E+00  0.0000E+00  0.3000E+01  0.3000E+01
    -37.621  0.0000E+00  0.0000E+00  0.3000E+01  0.3000E+01
    -37.350  0.0000E+00  0.0000E+00  0.3000E+01  0.3000E+01
    -37.079  0.0000E+00  0.0000E+00  0.3000E+01  0.3000E+01
    -36.808  0.0000E+00  0.0000E+00  0.3000E+01  0.3000E+01
    -36.537  0.0000E+00  0.0000E+00  0.3000E+01  0.3000E+01
    -36.265  0.0000E+00  0.0000E+00  0.3000E+01  0.3000E+01
    -35.994  0.0000E+00  0.0000E+00  0.3000E+01  0.3000E+01
    -35.723  0.0000E+00  0.0000E+00  0.3000E+01  0.3000E+01
    -35.452  0.0000E+00  0.0000E+00  0.3000E+01  0.3000E+01
    -35.181  0.0000E+00  0.0000E+00  0.3000E+01  0.3000E+01
    -34.910  0.0000E+00  0.0000E+00  0.3000E+01  0.3000E+01
    -34.639  0.0000E+00  0.0000E+00  0.3000E+01  0.3000E+01
    -34.367  0.0000E+00  0.0000E+00  0.3000E+01  0.3000E+01
    -34.096  0.0000E+00  0.0000E+00  0.3000E+01  0.3000E+01
    -33.825  0.0000E+00  0.0000E+00  0.3000E+01  0.3000E+01
    -33.554  0.0000E+00  0.0000E+00  0.3000E+01  0.3000E+01
    -33.283  0.0000E+00  0.0000E+00  0.3000E+01  0.3000E+01
    -33.012  0.0000E+00  0.0000E+00  0.3000E+01  0.3000E+01
    -32.741  0.0000E+00  0.0000E+00  0.3000E+01  0.3000E+01
    -32.469  0.0000E+00  0.0000E+00  0.3000E+01  0.3000E+01
    -32.198  0.0000E+00  0.0000E+00  0.3000E+01  0.3000E+01
    -31.927  0.0000E+00  0.0000E+00  0.3000E+01  0.3000E+01
    -31.656  0.0000E+00  0.0000E+00  0.3000E+01  0.3000E+01
    -31.385  0.0000E+00  0.0000E+00  0.3000E+01  0.3000E+01
    -31.114  0.0000E+00  0.0000E+00  0.3000E+01  0.3000E+01
    -30.843  0.0000E+00  0.0000E+00  0.3000E+01  0.3000E+01
    -30.571  0.0000E+00  0.0000E+00  0.3000E+01  0.3000E+01
    -30.300  0.0000E+00  0.0000E+00  0.3000E+01  0.3000E+01
    -30.029  0.0000E+00  0.0000E+00  0.3000E+01  0.3000E+01
    -29.758  0.0000E+00  0.0000E+00  0.3000E+01  0.3000E+01
    -29.487  0.0000E+00  0.0000E+00  0.3000E+01  0.3000E+01
    -29.216  0.0000E+00  0.0000E+00  0.3000E+01  0.3000E+01
    -28.945  0.0000E+00  0.0000E+00  0.3000E+01  0.3000E+01
    -28.673  0.0000E+00  0.0000E+00  0.3000E+01  0.3000E+01
    -28.402  0.0000E+00  0.0000E+00  0.3000E+01  0.3000E+01
    -28.131  0.0000E+00  0.0000E+00  0.3000E+01  0.3000E+01
    -27.860  0.0000E+00  0.0000E+00  0.3000E+01  0.3000E+01
    -27.589  0.0000E+00  0.0000E+00  0.3000E+01  0.3000E+01
    -27.318  0.0000E+00  0.0000E+00  0.3000E+01  0.3000E+01
    -27.046  0.0000E+00  0.0000E+00  0.3000E+01  0.3000E+01
    -26.775  0.0000E+00  0.0000E+00  0.3000E+01  0.3000E+01
    -26.504  0.0000E+00  0.0000E+00  0.3000E+01  0.3000E+01
    -26.233  0.0000E+00  0.0000E+00  0.3000E+01  0.3000E+01
    -25.962  0.0000E+00  0.0000E+00  0.3000E+01  0.3000E+01
    -25.691  0.0000E+00  0.0000E+00  0.3000E+01  0.3000E+01
    -25.420  0.0000E+00  0.0000E+00  0.3000E+01  0.3000E+01
    -25.148  0.0000E+00  0.0000E+00  0.3000E+01  0.3000E+01
    -24.877  0.0000E+00  0.0000E+00  0.3000E+01  0.3000E+01
    -24.606  0.0000E+00  0.0000E+00  0.3000E+01  0.3000E+01
    -24.335  0.0000E+00  0.0000E+00  0.3000E+01  0.3000E+01
    -24.064  0.0000E+00  0.0000E+00  0.3000E+01  0.3000E+01
    -23.793  0.0000E+00  0.0000E+00  0.3000E+01  0.3000E+01
    -23.522  0.0000E+00  0.0000E+00  0.3000E+01  0.3000E+01
    -23.250  0.0000E+00  0.0000E+00  0.3000E+01  0.3000E+01
    -22.979  0.0000E+00  0.0000E+00  0.3000E+01  0.3000E+01
    -22.708  0.0000E+00  0.0000E+00  0.3000E+01  0.3000E+01
    -22.437  0.0000E+00  0.0000E+00  0.3000E+01  0.3000E+01
    -22.166  0.0000E+00  0.0000E+00  0.3000E+01  0.3000E+01
    -21.895  0.0000E+00  0.0000E+00  0.3000E+01  0.3000E+01
    -21.624  0.0000E+00  0.0000E+00  0.3000E+01  0.3000E+01
    -21.352  0.0000E+00  0.0000E+00  0.3000E+01  0.3000E+01
    -21.081  0.0000E+00  0.0000E+00  0.3000E+01  0.3000E+01
    -20.810  0.0000E+00  0.0000E+00  0.3000E+01  0.3000E+01
    -20.539  0.0000E+00  0.0000E+00  0.3000E+01  0.3000E+01
    -20.268  0.0000E+00  0.0000E+00  0.3000E+01  0.3000E+01
    -19.997  0.0000E+00  0.0000E+00  0.3000E+01  0.3000E+01
    -19.726  0.0000E+00  0.0000E+00  0.3000E+01  0.3000E+01
    -19.454  0.0000E+00  0.0000E+00  0.3000E+01  0.3000E+01
    -19.183  0.0000E+00  0.0000E+00  0.3000E+01  0.3000E+01
    -18.912  0.0000E+00  0.0000E+00  0.3000E+01  0.3000E+01
    -18.641  0.0000E+00  0.0000E+00  0.3000E+01  0.3000E+01
    -18.370  0.0000E+00  0.0000E+00  0.3000E+01  0.3000E+01
    -18.099  0.0000E+00  0.0000E+00  0.3000E+01  0.3000E+01
    -17.828  0.0000E+00  0.0000E+00  0.3000E+01  0.3000E+01
    -17.556  0.0000E+00  0.0000E+00  0.3000E+01  0.3000E+01
    -17.285  0.0000E+00  0.0000E+00  0.3000E+01  0.3000E+01
    -17.014  0.0000E+00  0.0000E+00  0.3000E+01  0.3000E+01
    -16.743  0.0000E+00  0.0000E+00  0.3000E+01  0.3000E+01
    -16.472  0.0000E+00  0.0000E+00  0.3000E+01  0.3000E+01
    -16.201  0.0000E+00  0.0000E+00  0.3000E+01  0.3000E+01
    -15.930  0.0000E+00  0.0000E+00  0.3000E+01  0.3000E+01
    -15.658  0.0000E+00  0.0000E+00  0.3000E+01  0.3000E+01
    -15.387  0.0000E+00  0.0000E+00  0.3000E+01  0.3000E+01
    -15.116  0.0000E+00  0.0000E+00  0.3000E+01  0.3000E+01
    -14.845  0.0000E+00  0.0000E+00  0.3000E+01  0.3000E+01
    -14.574  0.0000E+00  0.0000E+00  0.3000E+01  0.3000E+01
    -14.303  0.0000E+00  0.0000E+00  0.3000E+01  0.3000E+01
    -14.032  0.0000E+00  0.0000E+00  0.3000E+01  0.3000E+01
    -13.760  0.0000E+00  0.0000E+00  0.3000E+01  0.3000E+01
    -13.489  0.0000E+00  0.0000E+00  0.3000E+01  0.3000E+01
    -13.218  0.0000E+00  0.0000E+00  0.3000E+01  0.3000E+01
    -12.947  0.0000E+00  0.0000E+00  0.3000E+01  0.3000E+01
    -12.676  0.0000E+00  0.0000E+00  0.3000E+01  0.3000E+01
    -12.405  0.0000E+00  0.0000E+00  0.3000E+01  0.3000E+01
    -12.134  0.0000E+00  0.0000E+00  0.3000E+01  0.3000E+01
    -11.862  0.0000E+00  0.0000E+00  0.3000E+01  0.3000E+01
    -11.591  0.0000E+00  0.0000E+00  0.3000E+01  0.3000E+01
    -11.320  0.0000E+00  0.0000E+00  0.3000E+01  0.3000E+01
    -11.049  0.0000E+00  0.0000E+00  0.3000E+01  0.3000E+01
    -10.778  0.0000E+00  0.0000E+00  0.3000E+01  0.3000E+01
    -10.507  0.0000E+00  0.0000E+00  0.3000E+01  0.3000E+01
    -10.236  0.0000E+00  0.0000E+00  0.3000E+01  0.3000E+01
     -9.964  0.0000E+00  0.0000E+00  0.3000E+01  0.3000E+01
     -9.693  0.0000E+00  0.0000E+00  0.3000E+01  0.3000E+01
     -9.422  0.0000E+00  0.0000E+00  0.3000E+01  0.3000E+01
     -9.151  0.0000E+00  0.0000E+00  0.3000E+01  0.3000E+01
     -8.880  0.0000E+00  0.0000E+00  0.3000E+01  0.3000E+01
     -8.609  0.0000E+00  0.0000E+00  0.3000E+01  0.3000E+01
     -8.338  0.0000E+00  0.0000E+00  0.3000E+01  0.3000E+01
     -8.066  0.0000E+00  0.0000E+00  0.3000E+01  0.3000E+01
     -7.795  0.0000E+00  0.0000E+00  0.3000E+01  0.3000E+01
     -7.524  0.0000E+00  0.0000E+00  0.3000E+01  0.3000E+01
     -7.253  0.0000E+00  0.0000E+00  0.3000E+01  0.3000E+01
     -6.982  0.0000E+00  0.0000E+00  0.3000E+01  0.3000E+01
     -6.711  0.0000E+00  0.0000E+00  0.3000E+01  0.3000E+01
     -6.440  0.0000E+00  0.0000E+00  0.3000E+01  0.3000E+01
     -6.168  0.0000E+00  0.0000E+00  0.3000E+01  0.3000E+01
     -5.897  0.0000E+00  0.0000E+00  0.3000E+01  0.3000E+01
     -5.626  0.0000E+00  0.0000E+00  0.3000E+01  0.3000E+01
     -5.355  0.0000E+00  0.0000E+00  0.3000E+01  0.3000E+01
     -5.084  0.0000E+00  0.0000E+00  0.3000E+01  0.3000E+01
     -4.813  0.0000E+00  0.0000E+00  0.3000E+01  0.3000E+01
     -4.542  0.0000E+00  0.0000E+00  0.3000E+01  0.3000E+01
     -4.270  0.0000E+00  0.0000E+00  0.3000E+01  0.3000E+01
     -3.999  0.0000E+00  0.0000E+00  0.3000E+01  0.3000E+01
     -3.728  0.0000E+00  0.0000E+00  0.3000E+01  0.3000E+01
     -3.457  0.0000E+00  0.0000E+00  0.3000E+01  0.3000E+01
     -3.186  0.0000E+00  0.0000E+00  0.3000E+01  0.3000E+01
     -2.915  0.0000E+00  0.0000E+00  0.3000E+01  0.3000E+01
     -2.643  0.1072E-01  0.1072E-01  0.3000E+01  0.3000E+01
     -2.372  0.1485E+00  0.1485E+00  0.3021E+01  0.3021E+01
     -2.101  0.1813E+00  0.1813E+00  0.3062E+01  0.3062E+01
     -1.830  0.2288E+00  0.2288E+00  0.3119E+01  0.3119E+01
     -1.559  0.2798E+00  0.2798E+00  0.3188E+01  0.3188E+01
     -1.288  0.3281E+00  0.3281E+00  0.3270E+01  0.3270E+01
     -1.017  0.4219E+00  0.4219E+00  0.3374E+01  0.3374E+01
     -0.745  0.3810E+00  0.3810E+00  0.3481E+01  0.3481E+01
     -0.474  0.3509E+00  0.3509E+00  0.3578E+01  0.3578E+01
     -0.203  0.3860E+00  0.3860E+00  0.3677E+01  0.3677E+01
      0.068  0.5054E+00  0.5054E+00  0.3797E+01  0.3797E+01
      0.339  0.5297E+00  0.5297E+00  0.3944E+01  0.3944E+01
      0.610  0.4380E+00  0.4380E+00  0.4073E+01  0.4073E+01
      0.881  0.4432E+00  0.4432E+00  0.4188E+01  0.4188E+01
      1.153  0.5446E+00  0.5446E+00  0.4323E+01  0.4323E+01
      1.424  0.6247E+00  0.6247E+00  0.4485E+01  0.4485E+01
      1.695  0.5657E+00  0.5657E+00  0.4646E+01  0.4646E+01
      1.966  0.5039E+00  0.5039E+00  0.4791E+01  0.4791E+01
      2.237  0.5320E+00  0.5320E+00  0.4923E+01  0.4923E+01
      2.508  0.7642E+00  0.7642E+00  0.5099E+01  0.5099E+01
      2.779  0.7531E+00  0.7531E+00  0.5309E+01  0.5309E+01
      3.051  0.7223E+00  0.7223E+00  0.5512E+01  0.5512E+01
      3.322  0.7080E+00  0.7080E+00  0.5706E+01  0.5706E+01
      3.593  0.7167E+00  0.7167E+00  0.5901E+01  0.5901E+01
      3.864  0.8722E+00  0.8722E+00  0.6110E+01  0.6110E+01
      4.135  0.1070E+01  0.1070E+01  0.6390E+01  0.6390E+01
      4.406  0.7298E+00  0.7298E+00  0.6628E+01  0.6628E+01
      4.677  0.7040E+00  0.7040E+00  0.6820E+01  0.6820E+01
      4.949  0.1042E+01  0.1042E+01  0.7109E+01  0.7109E+01
      5.220  0.1300E+01  0.1300E+01  0.7414E+01  0.7414E+01
      5.491  0.1413E+01  0.1413E+01  0.7766E+01  0.7766E+01
      5.762  0.1899E+01  0.1899E+01  0.8242E+01  0.8242E+01
      6.033  0.3259E+01  0.3259E+01  0.8996E+01  0.8996E+01
      6.304  0.7100E+01  0.7100E+01  0.1014E+02  0.1014E+02
      6.575  0.8311E+00  0.8311E+00  0.1098E+02  0.1098E+02
      6.847  0.3412E+01  0.3412E+01  0.1110E+02  0.1110E+02
      7.118  0.2318E+01  0.2318E+01  0.1212E+02  0.1212E+02
      7.389  0.1298E+01  0.1298E+01  0.1259E+02  0.1259E+02
      7.660  0.7627E+00  0.7627E+00  0.1284E+02  0.1284E+02
      7.931  0.1575E+01  0.1575E+01  0.1316E+02  0.1316E+02
      8.202  0.1073E+01  0.1073E+01  0.1354E+02  0.1354E+02
      8.473  0.9732E+00  0.9732E+00  0.1382E+02  0.1382E+02
      8.745  0.1058E+01  0.1058E+01  0.1408E+02  0.1408E+02
      9.016  0.1049E+01  0.1049E+01  0.1437E+02  0.1437E+02
      9.287  0.8493E+00  0.8493E+00  0.1466E+02  0.1466E+02
      9.558  0.1016E+01  0.1016E+01  0.1490E+02  0.1490E+02
      9.829  0.1141E+01  0.1141E+01  0.1521E+02  0.1521E+02
     10.100  0.1172E+01  0.1172E+01  0.1553E+02  0.1553E+02
     10.371  0.9247E+00  0.9247E+00  0.1582E+02  0.1582E+02
     10.643  0.9338E+00  0.9338E+00  0.1608E+02  0.1608E+02
     10.914  0.8944E+00  0.8944E+00  0.1632E+02  0.1632E+02
     11.185  0.1056E+01  0.1056E+01  0.1658E+02  0.1658E+02
     11.456  0.1070E+01  0.1070E+01  0.1689E+02  0.1689E+02
     11.727  0.1061E+01  0.1061E+01  0.1718E+02  0.1718E+02
     11.998  0.1116E+01  0.1116E+01  0.1747E+02  0.1747E+02
     12.269  0.9562E+00  0.9562E+00  0.1777E+02  0.1777E+02
     12.541  0.9142E+00  0.9142E+00  0.1801E+02  0.1801E+02
     12.812  0.1056E+01  0.1056E+01  0.1828E+02  0.1828E+02
     13.083  0.1393E+01  0.1393E+01  0.1860E+02  0.1860E+02
     13.354  0.1168E+01  0.1168E+01  0.1894E+02  0.1894E+02
     13.625  0.1354E+01  0.1354E+01  0.1928E+02  0.1928E+02
     13.896  0.1094E+01  0.1094E+01  0.1960E+02  0.1960E+02
     14.167  0.1051E+01  0.1051E+01  0.1987E+02  0.1987E+02
     14.439  0.8449E+00  0.8449E+00  0.2014E+02  0.2014E+02
     14.710  0.9710E+00  0.9710E+00  0.2037E+02  0.2037E+02
     14.981  0.1399E+01  0.1399E+01  0.2070E+02  0.2070E+02
     15.252  0.1534E+01  0.1534E+01  0.2111E+02  0.2111E+02
     15.523  0.1318E+01  0.1318E+01  0.2147E+02  0.2147E+02
     15.794  0.1694E+01  0.1694E+01  0.2186E+02  0.2186E+02
     16.065  0.1458E+01  0.1458E+01  0.2235E+02  0.2235E+02
     16.337  0.9012E+00  0.9012E+00  0.2263E+02  0.2263E+02
     16.608  0.1108E+01  0.1108E+01  0.2291E+02  0.2291E+02
     16.879  0.9982E+00  0.9982E+00  0.2320E+02  0.2320E+02
     17.150  0.7150E+00  0.7150E+00  0.2344E+02  0.2344E+02
     17.421  0.5508E+00  0.5508E+00  0.2361E+02  0.2361E+02
     17.692  0.4726E+00  0.4726E+00  0.2375E+02  0.2375E+02
     17.963  0.2925E+00  0.2925E+00  0.2385E+02  0.2385E+02
     18.235  0.2152E+00  0.2152E+00  0.2392E+02  0.2392E+02
     18.506  0.1425E+00  0.1425E+00  0.2397E+02  0.2397E+02
     18.777  0.2804E-01  0.2804E-01  0.2400E+02  0.2400E+02
     19.048  0.0000E+00  0.0000E+00  0.2400E+02  0.2400E+02
     19.319  0.0000E+00  0.0000E+00  0.2400E+02  0.2400E+02
     19.590  0.0000E+00  0.0000E+00  0.2400E+02  0.2400E+02
     19.861  0.0000E+00  0.0000E+00  0.2400E+02  0.2400E+02
     20.133  0.0000E+00  0.0000E+00  0.2400E+02  0.2400E+02
     20.404  0.0000E+00  0.0000E+00  0.2400E+02  0.2400E+02
     20.675  0.0000E+00  0.0000E+00  0.2400E+02  0.2400E+02
     20.946  0.0000E+00  0.0000E+00  0.2400E+02  0.2400E+02
     21.217  0.0000E+00  0.0000E+00  0.2400E+02  0.2400E+02
     21.488  0.0000E+00  0.0000E+00  0.2400E+02  0.2400E+02
     21.760  0.0000E+00  0.0000E+00  0.2400E+02  0.2400E+02
     22.031  0.0000E+00  0.0000E+00  0.2400E+02  0.2400E+02
     22.302  0.0000E+00  0.0000E+00  0.2400E+02  0.2400E+02
     22.573  0.0000E+00  0.0000E+00  0.2400E+02  0.2400E+02
