       N       E                     dE             d eps       ncg     rms          rms(c)
DAV:   1     0.140915518910E+03    0.14092E+03   -0.14242E+04  4032   0.102E+03
DAV:   2    -0.165043947658E+02   -0.15742E+03   -0.14773E+03  3880   0.275E+02
DAV:   3    -0.212966959340E+02   -0.47923E+01   -0.47347E+01  4376   0.523E+01
DAV:   4    -0.213794004789E+02   -0.82705E-01   -0.82687E-01  3928   0.749E+00
DAV:   5    -0.213821684307E+02   -0.27680E-02   -0.27679E-02  4472   0.135E+00    0.236E+01
DAV:   6    -0.384803512881E+02   -0.17098E+02   -0.21507E+02  3864   0.178E+02    0.310E+01
DAV:   7    -0.203587297869E+02    0.18122E+02   -0.37138E+01  4192   0.908E+01    0.105E+01
DAV:   8    -0.189632730944E+02    0.13955E+01   -0.60147E+00  4760   0.363E+01    0.133E+00
DAV:   9    -0.190221340750E+02   -0.58861E-01   -0.66620E-01  4632   0.988E+00    0.263E+00
DAV:  10    -0.189511970445E+02    0.70937E-01   -0.44950E-01  4296   0.894E+00    0.814E-01
DAV:  11    -0.189510896150E+02    0.10743E-03   -0.16957E-02  3864   0.805E-01    0.768E-01
DAV:  12    -0.189454944637E+02    0.55952E-02   -0.13081E-02  4680   0.130E+00    0.212E-01
DAV:  13    -0.189452566469E+02    0.23782E-03   -0.85258E-04  5256   0.233E-01    0.117E-01
DAV:  14    -0.189451147185E+02    0.14193E-03   -0.57963E-04  4416   0.293E-01    0.700E-03
DAV:  15    -0.189451200900E+02   -0.53715E-05   -0.37312E-05  5280   0.427E-02    0.188E-02
DAV:  16    -0.189451173988E+02    0.26912E-05   -0.35189E-06  4768   0.219E-02    0.998E-03
DAV:  17    -0.189451161366E+02    0.12622E-05   -0.34456E-06  5192   0.205E-02    0.944E-04
DAV:  18    -0.189451161178E+02    0.18821E-07   -0.13531E-07  4400   0.241E-03    0.232E-04
DAV:  19    -0.189451161107E+02    0.71623E-08   -0.13547E-08  2120   0.135E-03
   1 F= -.18945116E+02 E0= -.18944643E+02  d E =-.189451E+02  mag=     0.0000
       N       E                     dE             d eps       ncg     rms          rms(c)
DAV:   1    -0.149422897386E+03   -0.13048E+03   -0.24782E+03  3456   0.718E+02    0.778E+01
DAV:   2    -0.279954478604E+02    0.12143E+03   -0.52524E+02  3872   0.181E+02    0.977E+00
DAV:   3    -0.287283615629E+02   -0.73291E+00   -0.72030E+01  3952   0.650E+01    0.240E+01
DAV:   4    -0.278380981065E+02    0.89026E+00   -0.67628E+01  4192   0.905E+01    0.375E+01
DAV:   5    -0.202278751441E+02    0.76102E+01   -0.36356E+01  4176   0.326E+01    0.212E+00
DAV:   6    -0.208956664113E+02   -0.66779E+00   -0.43313E+00  4592   0.169E+01    0.770E+00
DAV:   7    -0.205948851806E+02    0.30078E+00   -0.14200E-01  4144   0.327E+00    0.665E+00
DAV:   8    -0.202397976948E+02    0.35509E+00   -0.28757E-01  4864   0.485E+00    0.434E+00
DAV:   9    -0.200888052219E+02    0.15099E+00   -0.20187E-01  5312   0.328E+00    0.233E+00
DAV:  10    -0.200607829454E+02    0.28022E-01   -0.27159E-02  5456   0.990E-01    0.167E+00
DAV:  11    -0.200344838670E+02    0.26299E-01   -0.59801E-02  4832   0.159E+00    0.489E-01
DAV:  12    -0.200321797508E+02    0.23041E-02   -0.88929E-03  5120   0.481E-01    0.116E-01
DAV:  13    -0.200320632966E+02    0.11645E-03   -0.79067E-04  5088   0.143E-01    0.188E-02
DAV:  14    -0.200320668376E+02   -0.35410E-05   -0.22995E-05  4064   0.408E-02    0.240E-02
DAV:  15    -0.200320615958E+02    0.52418E-05   -0.58833E-05  4736   0.463E-02    0.133E-02
DAV:  16    -0.200320612093E+02    0.38644E-06   -0.15700E-05  4176   0.309E-02    0.656E-03
DAV:  17    -0.200320610393E+02    0.16998E-06   -0.33289E-07  4272   0.348E-03    0.490E-03
DAV:  18    -0.200320608807E+02    0.15864E-06   -0.29656E-07  4688   0.342E-03    0.218E-03
DAV:  19    -0.200320608380E+02    0.42677E-07   -0.18028E-07  4320   0.263E-03    0.113E-04
DAV:  20    -0.200320608491E+02   -0.11122E-07   -0.78922E-09  1920   0.729E-04    0.381E-04
DAV:  21    -0.200320608465E+02    0.26016E-08   -0.81289E-09  1904   0.712E-04
   2 F= -.20032061E+02 E0= -.20031543E+02  d E =-.108694E+01  mag=     0.0000
       N       E                     dE             d eps       ncg     rms          rms(c)
DAV:   1    -0.106786608469E+03   -0.86755E+02   -0.72169E+02  4176   0.284E+02    0.865E+01
DAV:   2    -0.172025572091E+03   -0.65239E+02   -0.13656E+03  5920   0.292E+02    0.916E+01
DAV:   3    -0.386179858438E+02    0.13341E+03   -0.89858E+02  4736   0.174E+02    0.252E+01
DAV:   4    -0.329407323553E+02    0.56773E+01   -0.38654E+01  3952   0.462E+01    0.185E+01
DAV:   5    -0.288656372606E+02    0.40751E+01   -0.17220E+00  4384   0.145E+01    0.158E+01
DAV:   6    -0.228254159365E+02    0.60402E+01   -0.25383E+01  4416   0.713E+01    0.159E+01
DAV:   7    -0.219077994417E+02    0.91762E+00   -0.39568E+00  4320   0.150E+01    0.619E+00
DAV:   8    -0.217261021099E+02    0.18170E+00   -0.26393E-01  5136   0.332E+00    0.342E+00
DAV:   9    -0.216130674982E+02    0.11303E+00   -0.66955E-01  4672   0.561E+00    0.904E-01
DAV:  10    -0.216095849816E+02    0.34825E-02   -0.19374E-02  4160   0.126E+00    0.611E-01
DAV:  11    -0.216066812554E+02    0.29037E-02   -0.23614E-02  4240   0.161E+00    0.168E-01
DAV:  12    -0.216067208396E+02   -0.39584E-04   -0.56069E-04  3856   0.154E-01    0.179E-01
DAV:  13    -0.216064839671E+02    0.23687E-03   -0.83515E-04  4784   0.246E-01    0.335E-02
DAV:  14    -0.216064826019E+02    0.13652E-05   -0.19746E-04  4704   0.135E-01    0.343E-02
DAV:  15    -0.216064762643E+02    0.63376E-05   -0.88795E-06  4784   0.259E-02    0.204E-02
DAV:  16    -0.216064724222E+02    0.38422E-05   -0.15493E-05  4880   0.354E-02    0.617E-04
DAV:  17    -0.216064725119E+02   -0.89721E-07   -0.38977E-07  3856   0.373E-03    0.199E-04
DAV:  18    -0.216064725145E+02   -0.26325E-08   -0.30464E-08  2720   0.180E-03
   3 F= -.21606473E+02 E0= -.21606384E+02  d E =-.266136E+01  mag=     0.0000
       N       E                     dE             d eps       ncg     rms          rms(c)
DAV:   1    -0.216457983961E+02   -0.39326E-01   -0.31576E-01  3744   0.661E+00    0.244E+00
DAV:   2    -0.219918852726E+02   -0.34609E+00   -0.34458E+00  4112   0.184E+01    0.617E+00
DAV:   3    -0.216058049487E+02    0.38608E+00   -0.14449E+00  4112   0.148E+01    0.339E-01
DAV:   4    -0.216086640222E+02   -0.28591E-02   -0.55833E-02  4400   0.144E+00    0.431E-01
DAV:   5    -0.216075197517E+02    0.11443E-02   -0.87845E-03  4096   0.930E-01    0.695E-02
DAV:   6    -0.216074785023E+02    0.41249E-04   -0.46711E-04  4640   0.215E-01    0.202E-02
DAV:   7    -0.216074761122E+02    0.23901E-05   -0.10508E-05  4120   0.202E-02    0.140E-02
DAV:   8    -0.216074743308E+02    0.17814E-05   -0.96060E-06  5056   0.267E-02    0.129E-03
DAV:   9    -0.216074742786E+02    0.52205E-07   -0.31427E-07  3840   0.344E-03    0.123E-03
DAV:  10    -0.216074742365E+02    0.42105E-07   -0.18138E-08  2384   0.113E-03    0.501E-04
DAV:  11    -0.216074742212E+02    0.15329E-07   -0.13013E-08  2064   0.898E-04    0.809E-05
DAV:  12    -0.216074742194E+02    0.18013E-08   -0.23431E-09  2000   0.514E-04
   4 F= -.21607474E+02 E0= -.21607346E+02  d E =-.266236E+01  mag=     0.0000
       N       E                     dE             d eps       ncg     rms          rms(c)
DAV:   1    -0.216096417374E+02   -0.21675E-02   -0.17970E-02  3744   0.159E+00    0.561E-01
DAV:   2    -0.216288591199E+02   -0.19217E-01   -0.17944E-01  4112   0.424E+00    0.157E+00
DAV:   3    -0.216074107371E+02    0.21448E-01   -0.98395E-02  4112   0.336E+00    0.378E-02
DAV:   4    -0.216075376455E+02   -0.12691E-03   -0.15869E-03  3712   0.188E-01    0.632E-02
DAV:   5    -0.216075114205E+02    0.26225E-04   -0.14174E-04  4608   0.115E-01    0.460E-03
DAV:   6    -0.216075111548E+02    0.26568E-06   -0.33824E-06  4144   0.167E-02    0.133E-03
DAV:   7    -0.216075111023E+02    0.52469E-07   -0.14067E-07  4720   0.230E-03    0.466E-04
DAV:   8    -0.216075110842E+02    0.18129E-07   -0.27699E-08  2536   0.147E-03    0.300E-04
DAV:   9    -0.216075110668E+02    0.17387E-07   -0.44389E-09  2096   0.688E-04    0.575E-05
DAV:  10    -0.216075110611E+02    0.57012E-08   -0.73222E-10  1912   0.230E-04
   5 F= -.21607511E+02 E0= -.21607373E+02  d E =-.266239E+01  mag=    -0.0000
       N       E                     dE             d eps       ncg     rms          rms(c)
DAV:   1    -0.216212630493E+02   -0.13752E-01   -0.15465E-01  3776   0.293E+00    0.659E-01
DAV:   2    -0.216344779267E+02   -0.13215E-01   -0.14744E-01  4400   0.387E+00    0.142E+00
DAV:   3    -0.216172239267E+02    0.17254E-01   -0.86029E-02  4160   0.316E+00    0.194E-01
DAV:   4    -0.216168293448E+02    0.39458E-03   -0.23897E-03  4160   0.320E-01    0.601E-02
DAV:   5    -0.216168051976E+02    0.24147E-04   -0.27074E-04  4432   0.159E-01    0.164E-02
DAV:   6    -0.216168029597E+02    0.22379E-05   -0.22153E-05  4496   0.484E-02    0.517E-03
DAV:   7    -0.216168028923E+02    0.67362E-07   -0.14818E-06  4464   0.121E-02    0.136E-03
DAV:   8    -0.216168028432E+02    0.49088E-07   -0.82792E-08  4480   0.253E-03    0.151E-04
DAV:   9    -0.216168028425E+02    0.70713E-09   -0.26599E-09  2128   0.388E-04
   6 F= -.21616803E+02 E0= -.21616439E+02  d E =-.929178E-02  mag=    -0.0000
       N       E                     dE             d eps       ncg     rms          rms(c)
DAV:   1    -0.216230224893E+02   -0.62196E-02   -0.12481E-01  3760   0.264E+00    0.586E-01
DAV:   2    -0.216334275265E+02   -0.10405E-01   -0.11634E-01  4368   0.345E+00    0.127E+00
DAV:   3    -0.216198192159E+02    0.13608E-01   -0.68975E-02  4112   0.281E+00    0.174E-01
DAV:   4    -0.216195067294E+02    0.31249E-03   -0.18807E-03  4112   0.284E-01    0.511E-02
DAV:   5    -0.216194892784E+02    0.17451E-04   -0.19870E-04  4416   0.136E-01    0.138E-02
DAV:   6    -0.216194877015E+02    0.15768E-05   -0.15790E-05  4480   0.408E-02    0.433E-03
DAV:   7    -0.216194876538E+02    0.47708E-07   -0.98265E-07  4560   0.979E-03    0.104E-03
DAV:   8    -0.216194876163E+02    0.37486E-07   -0.43918E-08  3968   0.178E-03    0.144E-04
DAV:   9    -0.216194876146E+02    0.17490E-08   -0.18656E-09  2080   0.365E-04
   7 F= -.21619488E+02 E0= -.21619029E+02  d E =-.119766E-01  mag=    -0.0000
       N       E                     dE             d eps       ncg     rms          rms(c)
DAV:   1    -0.216252125510E+02   -0.57249E-02   -0.48802E-02  3984   0.262E+00    0.887E-01
DAV:   2    -0.216744777101E+02   -0.49265E-01   -0.44105E-01  4160   0.673E+00    0.269E+00
DAV:   3    -0.216194677396E+02    0.55010E-01   -0.29592E-01  4112   0.523E+00    0.107E-01
DAV:   4    -0.216196789966E+02   -0.21126E-03   -0.31432E-03  3520   0.297E-01    0.692E-02
DAV:   5    -0.216196488877E+02    0.30109E-04   -0.17096E-04  4944   0.127E-01    0.849E-03
DAV:   6    -0.216196480943E+02    0.79334E-06   -0.87504E-06  3824   0.322E-02    0.421E-03
DAV:   7    -0.216196480371E+02    0.57225E-07   -0.72614E-07  5248   0.744E-03    0.510E-04
DAV:   8    -0.216196480942E+02   -0.57129E-07   -0.21123E-08  3248   0.807E-04    0.363E-04
DAV:   9    -0.216196481059E+02   -0.11662E-07   -0.20417E-09  2048   0.395E-04    0.158E-04
DAV:  10    -0.216196481167E+02   -0.10833E-07   -0.11016E-09  1952   0.218E-04    0.837E-06
DAV:  11    -0.216196481165E+02    0.27512E-09   -0.17075E-10  1888   0.136E-04
   8 F= -.21619648E+02 E0= -.21619193E+02  d E =-.160502E-03  mag=     0.0000
       N       E                     dE             d eps       ncg     rms          rms(c)
DAV:   1    -0.216198086656E+02   -0.16055E-03   -0.13729E-03  3984   0.437E-01    0.150E-01
DAV:   2    -0.216212015408E+02   -0.13929E-02   -0.12814E-02  4160   0.114E+00    0.441E-01
DAV:   3    -0.216196441404E+02    0.15574E-02   -0.77896E-03  4128   0.897E-01    0.139E-02
DAV:   4    -0.216196517692E+02   -0.76288E-05   -0.94284E-05  3584   0.453E-02    0.130E-02
DAV:   5    -0.216196507097E+02    0.10595E-05   -0.57715E-06  4736   0.239E-02    0.113E-03
DAV:   6    -0.216196507153E+02   -0.55734E-08   -0.21623E-07  3872   0.485E-03    0.706E-04
DAV:   7    -0.216196507197E+02   -0.44033E-08   -0.24160E-08  2288   0.145E-03
   9 F= -.21619651E+02 E0= -.21619196E+02  d E =-.163105E-03  mag=     0.0000
       N       E                     dE             d eps       ncg     rms          rms(c)
DAV:   1    -0.216200194268E+02   -0.36871E-03   -0.43727E-03  3840   0.608E-01    0.167E-01
DAV:   2    -0.216214803674E+02   -0.14609E-02   -0.14018E-02  4192   0.120E+00    0.453E-01
DAV:   3    -0.216197920754E+02    0.16883E-02   -0.82398E-03  4080   0.950E-01    0.303E-02
DAV:   4    -0.216197894272E+02    0.26483E-05   -0.13915E-04  3888   0.658E-02    0.152E-02
DAV:   5    -0.216197880257E+02    0.14014E-05   -0.93989E-06  4352   0.304E-02    0.194E-03
DAV:   6    -0.216197880519E+02   -0.26205E-07   -0.32476E-07  4144   0.470E-03    0.770E-04
DAV:   7    -0.216197880495E+02    0.24656E-08   -0.34358E-08  2768   0.171E-03
  10 F= -.21619788E+02 E0= -.21619341E+02  d E =-.137330E-03  mag=     0.0000
       N       E                     dE             d eps       ncg     rms          rms(c)
DAV:   1    -0.216204315031E+02   -0.64345E-03   -0.10179E-02  3840   0.928E-01    0.255E-01
DAV:   2    -0.216238200703E+02   -0.33886E-02   -0.32615E-02  4208   0.183E+00    0.687E-01
DAV:   3    -0.216199013308E+02    0.39187E-02   -0.18959E-02  4096   0.145E+00    0.458E-02
DAV:   4    -0.216198961693E+02    0.51614E-05   -0.32857E-04  3888   0.100E-01    0.241E-02
DAV:   5    -0.216198925343E+02    0.36350E-05   -0.23466E-05  4368   0.477E-02    0.294E-03
DAV:   6    -0.216198925555E+02   -0.21128E-07   -0.81138E-07  4144   0.733E-03    0.107E-03
DAV:   7    -0.216198925498E+02    0.56834E-08   -0.75483E-08  4000   0.240E-03
  11 F= -.21619893E+02 E0= -.21619459E+02  d E =-.241830E-03  mag=     0.0000
       N       E                     dE             d eps       ncg     rms          rms(c)
DAV:   1    -0.216199731886E+02   -0.80633E-04   -0.10251E-03  4368   0.324E-01    0.951E-02
DAV:   2    -0.216204508023E+02   -0.47761E-03   -0.45345E-03  4112   0.684E-01    0.259E-01
DAV:   3    -0.216199016777E+02    0.54912E-03   -0.27081E-03  4096   0.539E-01    0.171E-02
DAV:   4    -0.216199009272E+02    0.75049E-06   -0.40662E-05  3776   0.352E-02    0.830E-03
DAV:   5    -0.216199004888E+02    0.43841E-06   -0.26927E-06  4480   0.161E-02    0.103E-03
DAV:   6    -0.216199005007E+02   -0.11884E-07   -0.91130E-08  4096   0.268E-03    0.412E-04
DAV:   7    -0.216199004964E+02    0.43315E-08   -0.90668E-09  2056   0.928E-04
  12 F= -.21619900E+02 E0= -.21619467E+02  d E =-.794662E-05  mag=     0.0000
       N       E                     dE             d eps       ncg     rms          rms(c)
DAV:   1    -0.216199046229E+02   -0.41222E-05   -0.51138E-05  4368   0.724E-02    0.212E-02
DAV:   2    -0.216199287160E+02   -0.24093E-04   -0.22562E-04  4128   0.153E-01    0.580E-02
DAV:   3    -0.216199011630E+02    0.27553E-04   -0.13597E-04  4096   0.120E-01    0.384E-03
DAV:   4    -0.216199010885E+02    0.74478E-07   -0.20043E-06  3728   0.789E-03    0.179E-03
DAV:   5    -0.216199010701E+02    0.18367E-07   -0.12631E-07  4296   0.351E-03    0.230E-04
DAV:   6    -0.216199010744E+02   -0.42583E-08   -0.39269E-09  2000   0.602E-04
  13 F= -.21619901E+02 E0= -.21619468E+02  d E =-.852461E-05  mag=    -0.0000
