 running on   24 total cores
 distrk:  each k-point on   24 cores,    1 groups
 distr:  one band on    6 cores,    4 groups
 using from now: INCAR     
 vasp.5.4.4.18Apr17-6-g9f103f2a35 (build Jan 03 2018 06:08:52) complex          
  
 POSCAR found :  2 types and      10 ions
 scaLAPACK will be used
 WARNING: for PREC=h ENMAX is automatically increase by 25 %
        this was not the case for versions prior to vasp.4.4
 WARNING: for PREC=h ENMAX is automatically increase by 25 %
        this was not the case for versions prior to vasp.4.4
 LDA part: xc-table for Pade appr. of Perdew
 POSCAR, INCAR and KPOINTS ok, starting setup
 FFT: planning ...
 WAVECAR not read
 entering main loop
       N       E                     dE             d eps       ncg     rms          rms(c)
DAV:   1     0.161283957974E+04    0.16128E+04   -0.70893E+04 13048   0.187E+03
DAV:   2     0.642009382017E+02   -0.15486E+04   -0.14865E+04 11224   0.608E+02
DAV:   3    -0.599226139084E+02   -0.12412E+03   -0.11275E+03 12504   0.191E+02
DAV:   4    -0.645595080785E+02   -0.46369E+01   -0.45951E+01 12536   0.363E+01
DAV:   5    -0.646633970840E+02   -0.10389E+00   -0.10387E+00 12560   0.511E+00    0.317E+01
DAV:   6    -0.721868315150E+02   -0.75234E+01   -0.13619E+02 12656   0.107E+02    0.371E+01
DAV:   7    -0.558160597720E+02    0.16371E+02   -0.46946E+01 12808   0.757E+01    0.996E+00
DAV:   8    -0.565917352165E+02   -0.77568E+00   -0.87346E+00 13736   0.399E+01    0.132E+01
DAV:   9    -0.559589559153E+02    0.63278E+00   -0.37275E+00 13400   0.217E+01    0.300E+00
DAV:  10    -0.560860237143E+02   -0.12707E+00   -0.55167E-01 13512   0.917E+00    0.386E+00
DAV:  11    -0.560214179480E+02    0.64606E-01   -0.27092E-01 12688   0.813E+00    0.102E+00
DAV:  12    -0.560334106111E+02   -0.11993E-01   -0.54697E-02 13032   0.241E+00    0.733E-01
DAV:  13    -0.560362575799E+02   -0.28470E-02   -0.26451E-02 13008   0.287E+00    0.876E-01
DAV:  14    -0.560322671393E+02    0.39904E-02   -0.97750E-03 12864   0.171E+00    0.105E-01
DAV:  15    -0.560324771476E+02   -0.21001E-03   -0.11141E-03 12464   0.211E-01    0.559E-02
DAV:  16    -0.560325257523E+02   -0.48605E-04   -0.75109E-05 13856   0.652E-02    0.197E-02
DAV:  17    -0.560325271848E+02   -0.14325E-05   -0.15383E-05 13880   0.302E-02    0.885E-03
DAV:  18    -0.560325272158E+02   -0.30966E-07   -0.24627E-06 13832   0.108E-02    0.556E-03
DAV:  19    -0.560325272574E+02   -0.41655E-07   -0.42738E-07 12936   0.502E-03    0.385E-03
DAV:  20    -0.560325272334E+02    0.24022E-07   -0.25540E-07 13376   0.387E-03    0.251E-03
DAV:  21    -0.560325271774E+02    0.56018E-07   -0.26569E-07 13696   0.389E-03    0.127E-03
DAV:  22    -0.560325271842E+02   -0.68503E-08   -0.10610E-07 10768   0.220E-03    0.692E-04
DAV:  23    -0.560325271757E+02    0.85711E-08   -0.52173E-08  8432   0.159E-03
   1 F= -.56032527E+02 E0= -.56032957E+02  d E =-.560325E+02  mag=     0.0006
 curvature:   0.00 expect dE= 0.000E+00 dE for cont linesearch  0.000E+00
 trial: gam= 0.00000 g(F)=  0.314E+00 g(S)=  0.770E+00 ort = 0.000E+00 (trialstep = 0.100E+01)
 search vector abs. value=  0.108E+01
 bond charge predicted
       N       E                     dE             d eps       ncg     rms          rms(c)
DAV:   1    -0.115309572386E+03   -0.59277E+02   -0.55706E+02 11792   0.226E+02    0.689E+01
DAV:   2    -0.113051887892E+03    0.22577E+01   -0.71212E+02 12576   0.199E+02    0.623E+01
DAV:   3    -0.604437394260E+02    0.52608E+02   -0.19771E+02 12704   0.122E+02    0.265E+01
DAV:   4    -0.587535721064E+02    0.16902E+01   -0.28712E+01 12928   0.493E+01    0.156E+01
DAV:   5    -0.567785477603E+02    0.19750E+01   -0.60418E+00 13872   0.258E+01    0.961E+00
DAV:   6    -0.565791970319E+02    0.19935E+00   -0.39282E+00 12848   0.173E+01    0.527E+00
DAV:   7    -0.563478293858E+02    0.23137E+00   -0.33628E-01 13440   0.897E+00    0.291E+00
DAV:   8    -0.563186813812E+02    0.29148E-01   -0.14819E-01 12640   0.564E+00    0.179E+00
DAV:   9    -0.562965501285E+02    0.22131E-01   -0.64512E-02 13600   0.382E+00    0.366E-01
DAV:  10    -0.562967643439E+02   -0.21422E-03   -0.10793E-02 12072   0.872E-01    0.111E-01
DAV:  11    -0.562967842643E+02   -0.19920E-04   -0.63150E-04 14832   0.259E-01    0.659E-02
DAV:  12    -0.562967899481E+02   -0.56839E-05   -0.15265E-04 12584   0.150E-01    0.243E-02
DAV:  13    -0.562967905737E+02   -0.62555E-06   -0.22568E-05 12976   0.489E-02    0.594E-03
DAV:  14    -0.562967906591E+02   -0.85445E-07   -0.25782E-06 12280   0.161E-02    0.179E-03
DAV:  15    -0.562967908105E+02   -0.15133E-06   -0.22735E-07 12280   0.557E-03    0.120E-03
DAV:  16    -0.562967907604E+02    0.50062E-07   -0.52501E-08  9824   0.294E-03    0.348E-04
DAV:  17    -0.562967907353E+02    0.25131E-07   -0.53568E-09  6304   0.698E-04    0.991E-05
DAV:  18    -0.562967907282E+02    0.70504E-08   -0.14570E-09  6168   0.211E-04
   2 F= -.56296791E+02 E0= -.56297340E+02  d E =-.264264E+00  mag=    -0.0000
 trial-energy change:   -0.264264  1 .order   -0.304255   -1.084367    0.475857
 step:   0.6605(harm=  0.6950)  dis= 0.05688  next Energy=   -56.379127 (dE=-0.347E+00)
 bond charge predicted
       N       E                     dE             d eps       ncg     rms          rms(c)
DAV:   1    -0.640233412021E+02   -0.77266E+01   -0.68701E+01 12288   0.711E+01    0.280E+01
DAV:   2    -0.711059356208E+02   -0.70826E+01   -0.11474E+02 12480   0.949E+01    0.323E+01
DAV:   3    -0.567033294222E+02    0.14403E+02   -0.38836E+01 12752   0.684E+01    0.916E+00
DAV:   4    -0.565673706456E+02    0.13596E+00   -0.52190E+00 13568   0.259E+01    0.493E+00
DAV:   5    -0.565543347702E+02    0.13036E-01   -0.10352E+00 13760   0.129E+01    0.583E+00
DAV:   6    -0.564563595411E+02    0.97975E-01   -0.54725E-01 13024   0.101E+01    0.308E+00
DAV:   7    -0.563961348799E+02    0.60225E-01   -0.17503E-01 13872   0.564E+00    0.182E+00
DAV:   8    -0.563779819865E+02    0.18153E-01   -0.60244E-02 12976   0.371E+00    0.548E-01
DAV:   9    -0.563773456360E+02    0.63635E-03   -0.16536E-02 13248   0.119E+00    0.244E-01
DAV:  10    -0.563770115164E+02    0.33412E-03   -0.35342E-03 12336   0.604E-01    0.691E-02
DAV:  11    -0.563769932613E+02    0.18255E-04   -0.23802E-04 12464   0.177E-01    0.287E-02
DAV:  12    -0.563769873791E+02    0.58822E-05   -0.29766E-05 13120   0.600E-02    0.645E-03
DAV:  13    -0.563769869235E+02    0.45565E-06   -0.48397E-06 12624   0.159E-02    0.191E-03
DAV:  14    -0.563769868481E+02    0.75357E-07   -0.24860E-07 13664   0.464E-03    0.758E-04
DAV:  15    -0.563769868052E+02    0.42975E-07   -0.24638E-08  9040   0.192E-03    0.272E-04
DAV:  16    -0.563769868144E+02   -0.92878E-08   -0.38054E-09  6304   0.468E-04
   3 F= -.56376987E+02 E0= -.56377857E+02  d E =-.344460E+00  mag=     0.0000
 curvature:  -0.34 expect dE=-0.411E-01 dE for cont linesearch -0.168E-04
 trial: gam= 0.11717 g(F)=  0.604E-01 g(S)=  0.594E-01 ort =-0.729E-02 (trialstep = 0.932E+00)
 search vector abs. value=  0.133E+00
 bond charge predicted
       N       E                     dE             d eps       ncg     rms          rms(c)
DAV:   1    -0.573089833809E+02   -0.93200E+00   -0.12878E+01 12944   0.398E+01    0.988E+00
DAV:   2    -0.581201516125E+02   -0.81117E+00   -0.14386E+01 12496   0.326E+01    0.116E+01
DAV:   3    -0.565604590820E+02    0.15597E+01   -0.58498E+00 12528   0.235E+01    0.441E+00
DAV:   4    -0.565370193136E+02    0.23440E-01   -0.10329E+00 12688   0.131E+01    0.333E+00
DAV:   5    -0.564665360021E+02    0.70483E-01   -0.17301E-01 13504   0.624E+00    0.166E+00
DAV:   6    -0.564557877209E+02    0.10748E-01   -0.71622E-02 13616   0.349E+00    0.863E-01
DAV:   7    -0.564508269993E+02    0.49607E-02   -0.17631E-02 13072   0.168E+00    0.156E-01
DAV:   8    -0.564509517120E+02   -0.12471E-03   -0.28863E-03 12528   0.473E-01    0.127E-01
DAV:   9    -0.564509261176E+02    0.25594E-04   -0.64700E-04 12608   0.432E-01    0.939E-02
DAV:  10    -0.564508614339E+02    0.64684E-04   -0.13951E-04 13216   0.193E-01    0.227E-02
DAV:  11    -0.564508603255E+02    0.11085E-05   -0.50314E-05 12608   0.569E-02    0.133E-02
DAV:  12    -0.564508586054E+02    0.17200E-05   -0.76856E-06 12688   0.262E-02    0.215E-03
DAV:  13    -0.564508584260E+02    0.17944E-06   -0.40478E-07 12432   0.511E-03    0.635E-04
DAV:  14    -0.564508583667E+02    0.59335E-07   -0.31801E-08 10176   0.144E-03    0.267E-04
DAV:  15    -0.564508583618E+02    0.48785E-08   -0.38221E-09  6224   0.616E-04
   4 F= -.56450858E+02 E0= -.56451349E+02  d E =-.738715E-01  mag=     0.0000
 trial-energy change:   -0.073872  1 .order   -0.073886   -0.110840   -0.036933
 step:   1.3979(harm=  1.3979)  dis= 0.06628  next Energy=   -56.460101 (dE=-0.831E-01)
 bond charge predicted
       N       E                     dE             d eps       ncg     rms          rms(c)
DAV:   1    -0.566730999507E+02   -0.22224E+00   -0.32656E+00 13088   0.201E+01    0.493E+00
DAV:   2    -0.568791667609E+02   -0.20607E+00   -0.36459E+00 12464   0.172E+01    0.606E+00
DAV:   3    -0.565396646653E+02    0.33950E+00   -0.16896E+00 12400   0.152E+01    0.369E+00
DAV:   4    -0.564728555210E+02    0.66809E-01   -0.35251E-01 12592   0.836E+00    0.119E+00
DAV:   5    -0.564695825152E+02    0.32730E-02   -0.53800E-02 13248   0.324E+00    0.129E+00
DAV:   6    -0.564615418567E+02    0.80407E-02   -0.27533E-02 12736   0.245E+00    0.436E-01
DAV:   7    -0.564611846190E+02    0.35724E-03   -0.74208E-03 14832   0.122E+00    0.417E-01
DAV:   8    -0.564601220050E+02    0.10626E-02   -0.36610E-03 12752   0.979E-01    0.721E-02
DAV:   9    -0.564601190774E+02    0.29275E-05   -0.45517E-04 12544   0.191E-01    0.269E-02
DAV:  10    -0.564601162628E+02    0.28146E-05   -0.38505E-05 12608   0.643E-02    0.972E-03
DAV:  11    -0.564601154217E+02    0.84114E-06   -0.58064E-06 12752   0.194E-02    0.427E-03
DAV:  12    -0.564601151385E+02    0.28318E-06   -0.76483E-07 12592   0.832E-03    0.102E-03
DAV:  13    -0.564601151162E+02    0.22268E-07   -0.71535E-08 11456   0.268E-03    0.491E-04
DAV:  14    -0.564601150933E+02    0.22985E-07   -0.10875E-08  6448   0.106E-03    0.122E-04
DAV:  15    -0.564601150863E+02    0.69231E-08   -0.20192E-09  6320   0.386E-04
   5 F= -.56460115E+02 E0= -.56460302E+02  d E =-.831283E-01  mag=     0.0000
 curvature:  -0.78 expect dE=-0.141E-01 dE for cont linesearch -0.281E-06
 trial: gam= 0.19965 g(F)=  0.993E-02 g(S)=  0.811E-02 ort =-0.218E-03 (trialstep = 0.103E+01)
 search vector abs. value=  0.233E-01
 bond charge predicted
       N       E                     dE             d eps       ncg     rms          rms(c)
DAV:   1    -0.562916246721E+02    0.16849E+00   -0.73746E+00 13152   0.682E+01    0.452E+00
DAV:   2    -0.568066818480E+02   -0.51506E+00   -0.63456E+00 13056   0.191E+01    0.595E+00
DAV:   3    -0.566822673608E+02    0.12441E+00   -0.17519E+00 12944   0.174E+01    0.601E+00
DAV:   4    -0.564905898733E+02    0.19168E+00   -0.77385E-01 13248   0.987E+00    0.132E+00
DAV:   5    -0.564971319299E+02   -0.65421E-02   -0.13302E-01 13856   0.496E+00    0.196E+00
DAV:   6    -0.564739136389E+02    0.23218E-01   -0.72915E-02 12912   0.448E+00    0.572E-01
DAV:   7    -0.564725200878E+02    0.13936E-02   -0.12402E-02 14464   0.126E+00    0.311E-01
DAV:   8    -0.564721354294E+02    0.38466E-03   -0.27278E-03 12368   0.886E-01    0.147E-01
DAV:   9    -0.564720056531E+02    0.12978E-03   -0.73221E-04 12496   0.344E-01    0.505E-02
DAV:  10    -0.564720087687E+02   -0.31156E-05   -0.96455E-05 12944   0.786E-02    0.122E-02
DAV:  11    -0.564720093279E+02   -0.55913E-06   -0.92968E-06 12400   0.289E-02    0.461E-03
DAV:  12    -0.564720097344E+02   -0.40652E-06   -0.73681E-07 13632   0.614E-03    0.194E-03
DAV:  13    -0.564720097694E+02   -0.34994E-07   -0.16169E-07 13200   0.387E-03    0.688E-04
DAV:  14    -0.564720097673E+02    0.20409E-08   -0.27002E-08  8560   0.166E-03
   6 F= -.56472010E+02 E0= -.56472090E+02  d E =-.118947E-01  mag=     0.0000
 trial-energy change:   -0.011895  1 .order   -0.011957   -0.018452   -0.005462
 step:   1.4749(harm=  1.4563)  dis= 0.01624  next Energy=   -56.473202 (dE=-0.131E-01)
 bond charge predicted
       N       E                     dE             d eps       ncg     rms          rms(c)
DAV:   1    -0.564385099700E+02    0.33500E-01   -0.14115E+00 13088   0.301E+01    0.194E+00
DAV:   2    -0.565345714141E+02   -0.96061E-01   -0.11209E+00 13136   0.837E+00    0.256E+00
DAV:   3    -0.565133568190E+02    0.21215E-01   -0.35973E-01 12864   0.808E+00    0.255E+00
DAV:   4    -0.564765400026E+02    0.36817E-01   -0.14126E-01 13296   0.495E+00    0.563E-01
DAV:   5    -0.564780046938E+02   -0.14647E-02   -0.23127E-02 13552   0.202E+00    0.867E-01
DAV:   6    -0.564735570190E+02    0.44477E-02   -0.13367E-02 12816   0.204E+00    0.243E-01
DAV:   7    -0.564732352185E+02    0.32180E-03   -0.19446E-03 14480   0.502E-01    0.723E-02
DAV:   8    -0.564732661586E+02   -0.30940E-04   -0.38514E-04 12992   0.333E-01    0.987E-02
DAV:   9    -0.564732112811E+02    0.54878E-04   -0.17258E-04 12624   0.230E-01    0.197E-02
DAV:  10    -0.564732132521E+02   -0.19710E-05   -0.23326E-05 12384   0.348E-02    0.483E-03
DAV:  11    -0.564732135041E+02   -0.25199E-06   -0.13323E-06 12528   0.944E-03    0.228E-03
DAV:  12    -0.564732137442E+02   -0.24005E-06   -0.23297E-07 13232   0.424E-03    0.983E-04
DAV:  13    -0.564732137673E+02   -0.23152E-07   -0.57678E-08 11040   0.243E-03    0.425E-04
DAV:  14    -0.564732137653E+02    0.20227E-08   -0.80960E-09  6272   0.939E-04
   7 F= -.56473214E+02 E0= -.56473288E+02  d E =-.130987E-01  mag=     0.0000
 curvature:  -0.94 expect dE=-0.405E-02 dE for cont linesearch -0.199E-07
 trial: gam= 0.25763 g(F)=  0.915E-03 g(S)=  0.340E-02 ort = 0.222E-04 (trialstep = 0.112E+01)
 search vector abs. value=  0.587E-02
 bond charge predicted
       N       E                     dE             d eps       ncg     rms          rms(c)
DAV:   1    -0.566185121084E+02   -0.14530E+00   -0.30446E+00 12512   0.335E+01    0.480E+00
DAV:   2    -0.568724576237E+02   -0.25395E+00   -0.38592E+00 12592   0.164E+01    0.569E+00
DAV:   3    -0.565136968339E+02    0.35876E+00   -0.14811E+00 12704   0.125E+01    0.281E+00
DAV:   4    -0.564853491594E+02    0.28348E-01   -0.28040E-01 12816   0.641E+00    0.108E+00
DAV:   5    -0.564863119101E+02   -0.96275E-03   -0.38218E-02 14464   0.328E+00    0.136E+00
DAV:   6    -0.564756316103E+02    0.10680E-01   -0.22180E-02 12912   0.276E+00    0.358E-01
DAV:   7    -0.564759612689E+02   -0.32966E-03   -0.60254E-03 14384   0.116E+00    0.415E-01
DAV:   8    -0.564748957599E+02    0.10655E-02   -0.26753E-03 12912   0.947E-01    0.686E-02
DAV:   9    -0.564748930609E+02    0.26991E-05   -0.29952E-04 12112   0.146E-01    0.238E-02
DAV:  10    -0.564748904458E+02    0.26150E-05   -0.23873E-05 13088   0.425E-02    0.776E-03
DAV:  11    -0.564748897008E+02    0.74501E-06   -0.34240E-06 12704   0.201E-02    0.364E-03
DAV:  12    -0.564748893472E+02    0.35363E-06   -0.56976E-07 12080   0.693E-03    0.648E-04
DAV:  13    -0.564748892703E+02    0.76878E-07   -0.28087E-08  9664   0.169E-03    0.223E-04
DAV:  14    -0.564748892376E+02    0.32705E-07   -0.52610E-09  6288   0.496E-04    0.977E-05
DAV:  15    -0.564748892332E+02    0.44311E-08   -0.14419E-09  6144   0.347E-04
   8 F= -.56474889E+02 E0= -.56474997E+02  d E =-.167547E-02  mag=     0.0000
 trial-energy change:   -0.001675  1 .order   -0.001666   -0.004821    0.001488
 step:   0.8539(harm=  0.8521)  dis= 0.00435  next Energy=   -56.475064 (dE=-0.185E-02)
 bond charge predicted
       N       E                     dE             d eps       ncg     rms          rms(c)
DAV:   1    -0.564828500585E+02   -0.79608E-02   -0.16704E-01 12448   0.786E+00    0.111E+00
DAV:   2    -0.564960503024E+02   -0.13200E-01   -0.20617E-01 12688   0.380E+00    0.134E+00
DAV:   3    -0.564796485248E+02    0.16402E-01   -0.89119E-02 12768   0.329E+00    0.909E-01
DAV:   4    -0.564755049059E+02    0.41436E-02   -0.21507E-02 12688   0.222E+00    0.220E-01
DAV:   5    -0.564756021280E+02   -0.97222E-04   -0.21861E-03 15008   0.656E-01    0.299E-01
DAV:   6    -0.564750981053E+02    0.50402E-03   -0.13054E-03 12624   0.688E-01    0.832E-02
DAV:   7    -0.564750632250E+02    0.34880E-04   -0.19351E-04 13008   0.155E-01    0.188E-02
DAV:   8    -0.564750657857E+02   -0.25607E-05   -0.24687E-05 13184   0.602E-02    0.192E-02
DAV:   9    -0.564750646017E+02    0.11840E-05   -0.10445E-05 12448   0.600E-02    0.897E-03
DAV:  10    -0.564750648632E+02   -0.26152E-06   -0.15469E-06 12848   0.192E-02    0.162E-03
DAV:  11    -0.564750651196E+02   -0.25633E-06   -0.25037E-07 12080   0.356E-03    0.479E-04
DAV:  12    -0.564750651590E+02   -0.39432E-07   -0.12609E-08  6736   0.946E-04    0.185E-04
DAV:  13    -0.564750651865E+02   -0.27463E-07   -0.23438E-09  5984   0.420E-04    0.634E-05
DAV:  14    -0.564750651927E+02   -0.62173E-08   -0.96767E-10  5968   0.236E-04
   9 F= -.56475065E+02 E0= -.56475167E+02  d E =-.185143E-02  mag=     0.0000
 curvature:  -0.58 expect dE=-0.301E-03 dE for cont linesearch -0.473E-09
 trial: gam= 0.12598 g(F)=  0.347E-03 g(S)=  0.174E-03 ort = 0.219E-05 (trialstep = 0.106E+01)
 search vector abs. value=  0.615E-03
 bond charge predicted
       N       E                     dE             d eps       ncg     rms          rms(c)
DAV:   1    -0.564738402969E+02    0.12249E-02   -0.10362E-01 12976   0.681E+00    0.523E-01
DAV:   2    -0.564796077274E+02   -0.57674E-02   -0.69373E-02 12848   0.222E+00    0.705E-01
DAV:   3    -0.564784004542E+02    0.12073E-02   -0.24324E-02 12800   0.234E+00    0.674E-01
DAV:   4    -0.564758405808E+02    0.25599E-02   -0.81706E-03 12896   0.151E+00    0.196E-01
DAV:   5    -0.564762439203E+02   -0.40334E-03   -0.28527E-03 13296   0.842E-01    0.353E-01
DAV:   6    -0.564754640788E+02    0.77984E-03   -0.16658E-03 12784   0.737E-01    0.495E-02
DAV:   7    -0.564754963451E+02   -0.32266E-04   -0.25919E-04 15392   0.229E-01    0.833E-02
DAV:   8    -0.564754565712E+02    0.39774E-04   -0.12715E-04 12736   0.213E-01    0.152E-02
DAV:   9    -0.564754563121E+02    0.25906E-06   -0.13871E-05 12896   0.376E-02    0.522E-03
DAV:  10    -0.564754567737E+02   -0.46155E-06   -0.14553E-06 13616   0.927E-03    0.173E-03
DAV:  11    -0.564754568744E+02   -0.10068E-06   -0.20515E-07 12224   0.443E-03    0.722E-04
DAV:  12    -0.564754568978E+02   -0.23454E-07   -0.15532E-08  6928   0.138E-03    0.177E-04
DAV:  13    -0.564754569101E+02   -0.12275E-07   -0.30439E-09  6192   0.456E-04    0.631E-05
DAV:  14    -0.564754569123E+02   -0.22192E-08   -0.10591E-09  6064   0.244E-04
  10 F= -.56475457E+02 E0= -.56475588E+02  d E =-.391720E-03  mag=     0.0000
 trial-energy change:   -0.000392  1 .order   -0.000390   -0.000554   -0.000226
 step:   1.7661(harm=  1.7975)  dis= 0.00467  next Energy=   -56.475532 (dE=-0.467E-03)
 bond charge predicted
       N       E                     dE             d eps       ncg     rms          rms(c)
DAV:   1    -0.564748269754E+02    0.62993E-03   -0.45328E-02 12976   0.450E+00    0.345E-01
DAV:   2    -0.564773387823E+02   -0.25118E-02   -0.30253E-02 12864   0.146E+00    0.465E-01
DAV:   3    -0.564768176931E+02    0.52109E-03   -0.10646E-02 12800   0.155E+00    0.446E-01
DAV:   4    -0.564757052861E+02    0.11124E-02   -0.36084E-03 12880   0.978E-01    0.133E-01
DAV:   5    -0.564758845956E+02   -0.17931E-03   -0.12577E-03 13408   0.567E-01    0.236E-01
DAV:   6    -0.564755360537E+02    0.34854E-03   -0.74123E-04 12800   0.490E-01    0.329E-02
DAV:   7    -0.564755533914E+02   -0.17338E-04   -0.12078E-04 15408   0.162E-01    0.592E-02
DAV:   8    -0.564755329827E+02    0.20409E-04   -0.61539E-05 12736   0.149E-01    0.969E-03
DAV:   9    -0.564755330936E+02   -0.11085E-06   -0.65278E-06 12688   0.245E-02    0.344E-03
DAV:  10    -0.564755333612E+02   -0.26768E-06   -0.60728E-07 13632   0.608E-03    0.118E-03
DAV:  11    -0.564755334313E+02   -0.70053E-07   -0.92551E-08 11104   0.303E-03    0.477E-04
DAV:  12    -0.564755334467E+02   -0.15378E-07   -0.75103E-09  6320   0.961E-04    0.130E-04
DAV:  13    -0.564755334543E+02   -0.76725E-08   -0.16913E-09  6096   0.359E-04
  11 F= -.56475533E+02 E0= -.56475682E+02  d E =-.468262E-03  mag=    -0.0000
 curvature:  -1.06 expect dE=-0.155E-03 dE for cont linesearch -0.222E-06
 trial: gam= 0.25838 g(F)=  0.871E-04 g(S)=  0.598E-04 ort = 0.113E-04 (trialstep = 0.120E+01)
 search vector abs. value=  0.194E-03
 bond charge predicted
       N       E                     dE             d eps       ncg     rms          rms(c)
DAV:   1    -0.564749756259E+02    0.55782E-03   -0.98127E-02 12912   0.774E+00    0.642E-01
DAV:   2    -0.564822033593E+02   -0.72277E-02   -0.93591E-02 12832   0.242E+00    0.758E-01
DAV:   3    -0.564778223756E+02    0.43810E-02   -0.32298E-02 12832   0.229E+00    0.622E-01
DAV:   4    -0.564758601960E+02    0.19622E-02   -0.10348E-02 12720   0.147E+00    0.161E-01
DAV:   5    -0.564759187316E+02   -0.58536E-04   -0.11066E-03 14480   0.488E-01    0.210E-01
DAV:   6    -0.564756615014E+02    0.25723E-03   -0.60428E-04 12976   0.462E-01    0.693E-02
DAV:   7    -0.564756757027E+02   -0.14201E-04   -0.23331E-04 14112   0.230E-01    0.875E-02
DAV:   8    -0.564756286755E+02    0.47027E-04   -0.12452E-04 12944   0.206E-01    0.145E-02
DAV:   9    -0.564756262896E+02    0.23860E-05   -0.17233E-05 12688   0.356E-02    0.649E-03
DAV:  10    -0.564756257740E+02    0.51559E-06   -0.14236E-06 13040   0.118E-02    0.157E-03
DAV:  11    -0.564756256494E+02    0.12462E-06   -0.16740E-07 12192   0.432E-03    0.598E-04
DAV:  12    -0.564756256166E+02    0.32760E-07   -0.95230E-09  6976   0.121E-03    0.184E-04
DAV:  13    -0.564756255946E+02    0.21977E-07   -0.38723E-09  6176   0.571E-04    0.998E-05
DAV:  14    -0.564756255874E+02    0.72505E-08   -0.11156E-09  6016   0.269E-04
  12 F= -.56475626E+02 E0= -.56475789E+02  d E =-.921331E-04  mag=    -0.0000
 trial-energy change:   -0.000092  1 .order   -0.000093   -0.000180   -0.000005
 step:   1.2388(harm=  1.2381)  dis= 0.00152  next Energy=   -56.475626 (dE=-0.922E-04)
 bond charge predicted
       N       E                     dE             d eps       ncg     rms          rms(c)
DAV:   1    -0.564756249500E+02    0.64465E-06   -0.84116E-05 12912   0.226E-01    0.187E-02
DAV:   2    -0.564756320199E+02   -0.70699E-05   -0.78595E-05 12816   0.706E-02    0.222E-02
DAV:   3    -0.564756279496E+02    0.40704E-05   -0.26987E-05 12816   0.667E-02    0.185E-02
DAV:   4    -0.564756261067E+02    0.18428E-05   -0.89931E-06 12720   0.444E-02    0.465E-03
DAV:   5    -0.564756260818E+02    0.24949E-07   -0.92029E-07 14960   0.140E-02    0.607E-03
DAV:   6    -0.564756258158E+02    0.26600E-06   -0.50805E-07 12912   0.136E-02    0.202E-03
DAV:   7    -0.564756257241E+02    0.91706E-07   -0.18038E-07 13904   0.614E-03    0.227E-03
DAV:   8    -0.564756256819E+02    0.42215E-07   -0.87989E-08 10656   0.547E-03    0.440E-04
DAV:   9    -0.564756256473E+02    0.34575E-07   -0.13026E-08  5840   0.108E-03    0.204E-04
DAV:  10    -0.564756256370E+02    0.10325E-07   -0.26860E-09  5744   0.452E-04    0.361E-05
DAV:  11    -0.564756256357E+02    0.13169E-08   -0.51623E-10  5744   0.164E-04
  13 F= -.56475626E+02 E0= -.56475789E+02  d E =-.921813E-04  mag=     0.0000
 curvature:  -0.80 expect dE=-0.362E-04 dE for cont linesearch -0.325E-10
 trial: gam= 0.33194 g(F)=  0.128E-04 g(S)=  0.325E-04 ort = 0.887E-07 (trialstep = 0.121E+01)
 search vector abs. value=  0.667E-04
 bond charge predicted
       N       E                     dE             d eps       ncg     rms          rms(c)
DAV:   1    -0.564754058857E+02    0.21975E-03   -0.37120E-02 12848   0.479E+00    0.383E-01
DAV:   2    -0.564780188495E+02   -0.26130E-02   -0.33956E-02 12912   0.145E+00    0.468E-01
DAV:   3    -0.564768000836E+02    0.12188E-02   -0.12594E-02 12848   0.141E+00    0.457E-01
DAV:   4    -0.564757113294E+02    0.10888E-02   -0.42592E-03 12720   0.101E+00    0.866E-02
DAV:   5    -0.564757036798E+02    0.76496E-05   -0.35747E-04 14288   0.233E-01    0.966E-02
DAV:   6    -0.564756591246E+02    0.44555E-04   -0.21200E-04 12656   0.270E-01    0.476E-02
DAV:   7    -0.564756482142E+02    0.10910E-04   -0.55425E-05 13376   0.977E-02    0.205E-02
DAV:   8    -0.564756472428E+02    0.97143E-06   -0.15292E-05 13008   0.692E-02    0.146E-02
DAV:   9    -0.564756464845E+02    0.75827E-06   -0.41305E-06 12464   0.316E-02    0.253E-03
DAV:  10    -0.564756467659E+02   -0.28141E-06   -0.53446E-07 12224   0.559E-03    0.117E-03
DAV:  11    -0.564756468432E+02   -0.77329E-07   -0.73864E-08 11832   0.241E-03    0.620E-04
DAV:  12    -0.564756468541E+02   -0.10838E-07   -0.17545E-08  6352   0.117E-03    0.162E-04
DAV:  13    -0.564756468632E+02   -0.91932E-08   -0.21077E-09  5776   0.386E-04
  14 F= -.56475647E+02 E0= -.56475815E+02  d E =-.212276E-04  mag=     0.0000
 trial-energy change:   -0.000021  1 .order   -0.000021   -0.000055    0.000012
 step:   0.9898(harm=  0.9922)  dis= 0.00074  next Energy=   -56.475648 (dE=-0.223E-04)
 bond charge predicted
       N       E                     dE             d eps       ncg     rms          rms(c)
DAV:   1    -0.564756394876E+02    0.73664E-05   -0.12326E-03 12848   0.874E-01    0.700E-02
DAV:   2    -0.564757313290E+02   -0.91841E-04   -0.11200E-03 12896   0.266E-01    0.859E-02
DAV:   3    -0.564756884531E+02    0.42876E-04   -0.41868E-04 12896   0.263E-01    0.847E-02
DAV:   4    -0.564756514707E+02    0.36982E-04   -0.14586E-04 12720   0.176E-01    0.161E-02
DAV:   5    -0.564756513621E+02    0.10862E-06   -0.13223E-05 14560   0.483E-02    0.202E-02
DAV:   6    -0.564756489654E+02    0.23967E-05   -0.78699E-06 12656   0.520E-02    0.773E-03
DAV:   7    -0.564756483285E+02    0.63687E-06   -0.19342E-06 14160   0.171E-02    0.472E-03
DAV:   8    -0.564756481970E+02    0.13157E-06   -0.60146E-07 12768   0.141E-02    0.224E-03
DAV:   9    -0.564756480629E+02    0.13412E-06   -0.12447E-07 12496   0.482E-03    0.497E-04
DAV:  10    -0.564756480132E+02    0.49680E-07   -0.12353E-08  5936   0.961E-04    0.177E-04
DAV:  11    -0.564756479986E+02    0.14588E-07   -0.32972E-09  5760   0.498E-04    0.122E-04
DAV:  12    -0.564756479968E+02    0.18081E-08   -0.95620E-10  5744   0.284E-04
  15 F= -.56475648E+02 E0= -.56475815E+02  d E =-.223611E-04  mag=     0.0000
 curvature:  -0.73 expect dE=-0.486E-05 dE for cont linesearch -0.248E-10
 trial: gam= 0.14824 g(F)=  0.490E-05 g(S)=  0.175E-05 ort =-0.475E-07 (trialstep = 0.117E+01)
 search vector abs. value=  0.810E-05
 reached required accuracy - stopping structural energy minimisation
 writing wavefunctions
