       N       E                     dE             d eps       ncg     rms          rms(c)
DAV:   1    -0.143598395623E+02   -0.14360E+02   -0.25423E-01  3200   0.682E+00    0.610E-01
DAV:   2    -0.143999844449E+02   -0.40145E-01   -0.20246E-01  4192   0.493E+00    0.170E+00
DAV:   3    -0.143606448935E+02    0.39340E-01   -0.10431E-01  3936   0.430E+00    0.883E-02
DAV:   4    -0.143616253439E+02   -0.98045E-03   -0.13282E-03  3480   0.243E-01    0.279E-02
DAV:   5    -0.143616220653E+02    0.32786E-05   -0.50739E-05  3920   0.653E-02    0.186E-02
DAV:   6    -0.143615684962E+02    0.53569E-04   -0.87981E-06  3696   0.416E-02    0.305E-03
DAV:   7    -0.143615776023E+02   -0.91061E-05   -0.45095E-07  3608   0.624E-03    0.649E-04
DAV:   8    -0.143615682431E+02    0.93592E-05   -0.72647E-08  3448   0.163E-03    0.136E-04
DAV:   9    -0.143615686874E+02   -0.44430E-06   -0.23744E-09  1760   0.507E-04    0.589E-05
DAV:  10    -0.143615687604E+02   -0.72986E-07   -0.61692E-10  1720   0.287E-04    0.206E-05
DAV:  11    -0.143615688257E+02   -0.65371E-07   -0.14130E-10  1616   0.134E-04    0.877E-06
DAV:  12    -0.143615688013E+02    0.24451E-07   -0.48158E-11  1600   0.707E-05    0.530E-06
DAV:  13    -0.143615687826E+02    0.18676E-07   -0.20382E-11  1600   0.457E-05    0.170E-06
DAV:  14    -0.143615687876E+02   -0.49845E-08   -0.83988E-12  1600   0.253E-05
   1 F= -.14361569E+02 E0= -.14361569E+02  d E =0.000000E+00  mag=    -0.0000
