       N       E                     dE             d eps       ncg     rms          rms(c)
DAV:   1     0.127064305753E+03    0.12706E+03   -0.12386E+04  3792   0.104E+03
DAV:   2    -0.113979499594E+02   -0.13846E+03   -0.13305E+03  3316   0.297E+02
DAV:   3    -0.152206894352E+02   -0.38227E+01   -0.37854E+01  3908   0.565E+01
DAV:   4    -0.152834887390E+02   -0.62799E-01   -0.62780E-01  3632   0.702E+00
DAV:   5    -0.152854986208E+02   -0.20099E-02   -0.20098E-02  3820   0.129E+00    0.194E+01
DAV:   6    -0.276696507833E+02   -0.12384E+02   -0.12855E+02  3848   0.147E+02    0.277E+01
DAV:   7    -0.138031139744E+02    0.13867E+02   -0.26991E+01  4080   0.842E+01    0.819E+00
DAV:   8    -0.131291509226E+02    0.67396E+00   -0.51103E+00  4364   0.297E+01    0.285E+00
DAV:   9    -0.130853441980E+02    0.43807E-01   -0.74246E-01  3692   0.112E+01    0.193E+00
DAV:  10    -0.130840508221E+02    0.12934E-02   -0.18100E-02  3848   0.159E+00    0.107E+00
DAV:  11    -0.130714247028E+02    0.12626E-01   -0.48238E-02  4152   0.278E+00    0.140E-01
DAV:  12    -0.130717127190E+02   -0.28802E-03   -0.17969E-03  3712   0.302E-01    0.125E-01
DAV:  13    -0.130715853073E+02    0.12741E-03   -0.19784E-04  4564   0.149E-01    0.637E-02
DAV:  14    -0.130715432693E+02    0.42038E-04   -0.97113E-05  4416   0.117E-01    0.173E-02
DAV:  15    -0.130715409473E+02    0.23220E-05   -0.26737E-05  4704   0.587E-02    0.902E-03
DAV:  16    -0.130715403156E+02    0.63168E-06   -0.19720E-06  4048   0.156E-02    0.263E-03
DAV:  17    -0.130715401278E+02    0.18779E-06   -0.20401E-07  4848   0.466E-03    0.709E-04
DAV:  18    -0.130715400809E+02    0.46894E-07   -0.21337E-08  2476   0.137E-03    0.140E-04
DAV:  19    -0.130715400786E+02    0.23183E-08   -0.43797E-09  1784   0.529E-04
   1 F= -.13071540E+02 E0= -.13071748E+02  d E =-.130715E+02  mag=    -0.0000
       N       E                     dE             d eps       ncg     rms          rms(c)
DAV:   1    -0.972393559090E+02   -0.84168E+02   -0.12677E+03  3432   0.585E+02    0.647E+01
DAV:   2    -0.273560907778E+02    0.69883E+02   -0.35845E+02  3996   0.179E+02    0.321E+01
DAV:   3    -0.316696008173E+02   -0.43135E+01   -0.24107E+02  3656   0.144E+02    0.316E+01
DAV:   4    -0.148656229014E+02    0.16804E+02   -0.37941E+01  4136   0.770E+01    0.561E+00
DAV:   5    -0.144204494162E+02    0.44517E+00   -0.20344E+00  3492   0.155E+01    0.832E+00
DAV:   6    -0.141116906770E+02    0.30876E+00   -0.47289E+00  4068   0.238E+01    0.632E+00
DAV:   7    -0.137729068271E+02    0.33878E+00   -0.69829E-01  4220   0.649E+00    0.223E+00
DAV:   8    -0.137260593141E+02    0.46848E-01   -0.23615E-01  3592   0.577E+00    0.337E-01
DAV:   9    -0.137237231312E+02    0.23362E-02   -0.11390E-02  3480   0.125E+00    0.651E-02
DAV:  10    -0.137237816021E+02   -0.58471E-04   -0.95249E-04  3412   0.218E-01    0.103E-01
DAV:  11    -0.137236799705E+02    0.10163E-03   -0.22497E-04  4056   0.123E-01    0.239E-02
DAV:  12    -0.137236754132E+02    0.45573E-05   -0.17368E-05  4368   0.274E-02    0.820E-03
DAV:  13    -0.137236749045E+02    0.50876E-06   -0.30632E-06  4776   0.149E-02    0.267E-03
DAV:  14    -0.137236750741E+02   -0.16965E-06   -0.19878E-07  4652   0.337E-03    0.442E-03
DAV:  15    -0.137236748975E+02    0.17667E-06   -0.39673E-07  4148   0.610E-03    0.536E-04
DAV:  16    -0.137236748808E+02    0.16685E-07   -0.27419E-08  2624   0.148E-03    0.522E-04
DAV:  17    -0.137236748773E+02    0.34420E-08   -0.43928E-09  1764   0.691E-04
   2 F= -.13723675E+02 E0= -.13723673E+02  d E =-.652135E+00  mag=    -0.0000
       N       E                     dE             d eps       ncg     rms          rms(c)
DAV:   1    -0.518268299562E+02   -0.38103E+02   -0.32880E+02  3576   0.205E+02    0.681E+01
DAV:   2    -0.123392101839E+03   -0.71565E+02   -0.13135E+03  3968   0.386E+02    0.526E+01
DAV:   3    -0.338845748731E+02    0.89508E+02   -0.22469E+02  3896   0.139E+02    0.260E+01
DAV:   4    -0.169018394824E+02    0.16983E+02   -0.29585E+01  4040   0.680E+01    0.109E+01
DAV:   5    -0.156206462525E+02    0.12812E+01   -0.16373E+00  4296   0.109E+01    0.824E+00
DAV:   6    -0.145445320905E+02    0.10761E+01   -0.81548E+00  4216   0.260E+01    0.497E+00
DAV:   7    -0.142864145321E+02    0.25812E+00   -0.61549E-01  4096   0.661E+00    0.176E+00
DAV:   8    -0.142372683311E+02    0.49146E-01   -0.88976E-02  3384   0.311E+00    0.187E+00
DAV:   9    -0.142146277239E+02    0.22641E-01   -0.22240E-02  4512   0.116E+00    0.115E+00
DAV:  10    -0.142080569833E+02    0.65707E-02   -0.12072E-01  4256   0.360E+00    0.766E-01
DAV:  11    -0.142026290134E+02    0.54280E-02   -0.14458E-02  3784   0.144E+00    0.154E-01
DAV:  12    -0.142022481655E+02    0.38085E-03   -0.27507E-03  4584   0.452E-01    0.101E-01
DAV:  13    -0.142021628631E+02    0.85302E-04   -0.53889E-04  3720   0.280E-01    0.271E-02
DAV:  14    -0.142021584946E+02    0.43685E-05   -0.12461E-05  3680   0.264E-02    0.205E-02
DAV:  15    -0.142021533997E+02    0.50949E-05   -0.16548E-05  4256   0.421E-02    0.130E-03
DAV:  16    -0.142021538917E+02   -0.49203E-06   -0.22515E-06  4928   0.130E-02    0.785E-03
DAV:  17    -0.142021534504E+02    0.44129E-06   -0.12723E-06  4248   0.122E-02    0.189E-03
DAV:  18    -0.142021534596E+02   -0.92168E-08   -0.17273E-07  4828   0.385E-03    0.134E-04
DAV:  19    -0.142021534636E+02   -0.40145E-08   -0.43573E-09  1764   0.421E-04
   3 F= -.14202153E+02 E0= -.14202000E+02  d E =-.113061E+01  mag=     0.0000
       N       E                     dE             d eps       ncg     rms          rms(c)
DAV:   1    -0.142132284652E+02   -0.11075E-01   -0.86413E-02  3528   0.408E+00    0.118E+00
DAV:   2    -0.142682260508E+02   -0.54998E-01   -0.46872E-01  3760   0.828E+00    0.263E+00
DAV:   3    -0.142025491371E+02    0.65677E-01   -0.23829E-01  3800   0.618E+00    0.124E-01
DAV:   4    -0.142023448011E+02    0.20434E-03   -0.16558E-03  3384   0.252E-01    0.786E-02
DAV:   5    -0.142022924795E+02    0.52322E-04   -0.12408E-04  4080   0.125E-01    0.591E-03
DAV:   6    -0.142022919411E+02    0.53838E-06   -0.33502E-06  3432   0.183E-02    0.204E-03
DAV:   7    -0.142022917823E+02    0.15887E-06   -0.17859E-07  3728   0.355E-03    0.833E-04
DAV:   8    -0.142022916771E+02    0.10522E-06   -0.22733E-08  3032   0.145E-03    0.176E-04
DAV:   9    -0.142022916555E+02    0.21583E-07   -0.15100E-09  1760   0.310E-04    0.459E-05
DAV:  10    -0.142022916535E+02    0.19691E-08   -0.31817E-10  1672   0.157E-04
   4 F= -.14202292E+02 E0= -.14202139E+02  d E =-.113075E+01  mag=    -0.0000
       N       E                     dE             d eps       ncg     rms          rms(c)
DAV:   1    -0.148270345039E+02   -0.62474E+00   -0.54402E+00  3544   0.289E+01    0.838E+00
DAV:   2    -0.170868349833E+02   -0.22598E+01   -0.21444E+01  3712   0.578E+01    0.138E+01
DAV:   3    -0.142957898196E+02    0.27910E+01   -0.63499E+00  3840   0.411E+01    0.129E+00
DAV:   4    -0.143173554499E+02   -0.21566E-01   -0.51546E-01  4632   0.693E+00    0.211E+00
DAV:   5    -0.142837102732E+02    0.33645E-01   -0.26274E-01  4032   0.583E+00    0.660E-01
DAV:   6    -0.142795689939E+02    0.41413E-02   -0.11430E-02  4184   0.123E+00    0.120E-01
DAV:   7    -0.142794317910E+02    0.13720E-03   -0.70775E-04  4376   0.278E-01    0.186E-02
DAV:   8    -0.142794336161E+02   -0.18251E-05   -0.18683E-05  3520   0.315E-02    0.922E-03
DAV:   9    -0.142794319427E+02    0.16734E-05   -0.72743E-06  3920   0.227E-02    0.311E-03
DAV:  10    -0.142794317303E+02    0.21240E-06   -0.29282E-07  4040   0.471E-03    0.144E-03
DAV:  11    -0.142794317063E+02    0.24052E-07   -0.71474E-08  3904   0.287E-03    0.450E-05
DAV:  12    -0.142794317092E+02   -0.28685E-08   -0.41919E-09  1800   0.436E-04
   5 F= -.14279432E+02 E0= -.14279731E+02  d E =-.771401E-01  mag=    -0.0000
       N       E                     dE             d eps       ncg     rms          rms(c)
DAV:   1    -0.146707197300E+02   -0.39129E+00   -0.37284E+00  3552   0.247E+01    0.693E+00
DAV:   2    -0.162629234146E+02   -0.15922E+01   -0.14848E+01  3744   0.483E+01    0.117E+01
DAV:   3    -0.143111910034E+02    0.19517E+01   -0.46446E+00  3848   0.347E+01    0.101E+00
DAV:   4    -0.143404673368E+02   -0.29276E-01   -0.39805E-01  4712   0.597E+00    0.214E+00
DAV:   5    -0.142999060633E+02    0.40561E-01   -0.11535E-01  4288   0.380E+00    0.275E-01
DAV:   6    -0.142995778121E+02    0.32825E-03   -0.60725E-03  4520   0.780E-01    0.178E-01
DAV:   7    -0.142993180841E+02    0.25973E-03   -0.69985E-04  4148   0.309E-01    0.327E-02
DAV:   8    -0.142993072283E+02    0.10856E-04   -0.53494E-05  4744   0.773E-02    0.601E-03
DAV:   9    -0.142993062423E+02    0.98595E-06   -0.26589E-06  3820   0.140E-02    0.117E-03
DAV:  10    -0.142993061654E+02    0.76890E-07   -0.11132E-07  4328   0.340E-03    0.290E-04
DAV:  11    -0.142993061401E+02    0.25314E-07   -0.70969E-09  1808   0.101E-03    0.258E-04
DAV:  12    -0.142993061401E+02   -0.26830E-10   -0.25002E-09  1752   0.575E-04
   6 F= -.14299306E+02 E0= -.14299041E+02  d E =-.970145E-01  mag=     0.0000
       N       E                     dE             d eps       ncg     rms          rms(c)
DAV:   1    -0.155956794250E+02   -0.12964E+01   -0.10921E+01  3608   0.478E+01    0.112E+01
DAV:   2    -0.201204994261E+02   -0.45248E+01   -0.45896E+01  3824   0.805E+01    0.268E+01
DAV:   3    -0.144302416855E+02    0.56903E+01   -0.31037E+01  3840   0.531E+01    0.364E+00
DAV:   4    -0.143352009626E+02    0.95041E-01   -0.49835E-01  3824   0.771E+00    0.110E+00
DAV:   5    -0.143220751936E+02    0.13126E-01   -0.34607E-02  4928   0.148E+00    0.179E-01
DAV:   6    -0.143213969648E+02    0.67823E-03   -0.23935E-03  3424   0.297E-01    0.524E-02
DAV:   7    -0.143213617143E+02    0.35251E-04   -0.25480E-04  4140   0.204E-01    0.495E-02
DAV:   8    -0.143213501762E+02    0.11538E-04   -0.95028E-05  4336   0.993E-02    0.228E-02
DAV:   9    -0.143213449119E+02    0.52643E-05   -0.80483E-06  4064   0.261E-02    0.761E-03
DAV:  10    -0.143213445520E+02    0.35997E-06   -0.75003E-07  4832   0.790E-03    0.241E-03
DAV:  11    -0.143213446008E+02   -0.48865E-07   -0.15900E-07  4856   0.308E-03    0.144E-04
DAV:  12    -0.143213445982E+02    0.26225E-08   -0.79189E-09  2136   0.590E-04
   7 F= -.14321345E+02 E0= -.14320695E+02  d E =-.220385E-01  mag=    -0.0000
       N       E                     dE             d eps       ncg     rms          rms(c)
DAV:   1    -0.143264164401E+02   -0.50718E-02   -0.35509E-02  3632   0.263E+00    0.826E-01
DAV:   2    -0.143709652762E+02   -0.44549E-01   -0.24651E-01  3928   0.614E+00    0.244E+00
DAV:   3    -0.143219736135E+02    0.48992E-01   -0.15495E-01  3992   0.466E+00    0.106E-01
DAV:   4    -0.143214451469E+02    0.52847E-03   -0.11397E-03  3400   0.256E-01    0.473E-02
DAV:   5    -0.143214178744E+02    0.27272E-04   -0.40976E-05  4192   0.560E-02    0.125E-02
DAV:   6    -0.143214169256E+02    0.94877E-06   -0.30029E-06  4216   0.149E-02    0.321E-03
DAV:   7    -0.143214170333E+02   -0.10765E-06   -0.34404E-07  3848   0.492E-03    0.510E-04
DAV:   8    -0.143214170816E+02   -0.48366E-07   -0.50101E-08  3464   0.161E-03    0.383E-04
DAV:   9    -0.143214170931E+02   -0.11504E-07   -0.24075E-09  1776   0.544E-04    0.112E-04
DAV:  10    -0.143214171018E+02   -0.86352E-08   -0.57609E-10  1664   0.187E-04
   8 F= -.14321417E+02 E0= -.14320765E+02  d E =-.221110E-01  mag=    -0.0000
       N       E                     dE             d eps       ncg     rms          rms(c)
DAV:   1    -0.143290125656E+02   -0.75955E-02   -0.15435E-01  3232   0.292E+00    0.356E-01
DAV:   2    -0.143317718811E+02   -0.27593E-02   -0.32211E-02  4232   0.193E+00    0.832E-01
DAV:   3    -0.143268567841E+02    0.49151E-02   -0.20839E-02  3928   0.177E+00    0.184E-01
DAV:   4    -0.143263010842E+02    0.55570E-03   -0.13436E-03  4504   0.349E-01    0.396E-02
DAV:   5    -0.143262835018E+02    0.17582E-04   -0.11510E-04  3576   0.696E-02    0.873E-03
DAV:   6    -0.143262835141E+02   -0.12343E-07   -0.68019E-06  3712   0.232E-02    0.441E-03
DAV:   7    -0.143262840828E+02   -0.56867E-06   -0.81417E-07  3808   0.977E-03    0.119E-03
DAV:   8    -0.143262840604E+02    0.22440E-07   -0.86569E-08  3928   0.371E-03    0.298E-04
DAV:   9    -0.143262840469E+02    0.13496E-07   -0.44728E-09  1832   0.705E-04    0.591E-05
DAV:  10    -0.143262840460E+02    0.88357E-09   -0.60865E-10  1720   0.249E-04
   9 F= -.14326284E+02 E0= -.14325943E+02  d E =-.486694E-02  mag=    -0.0000
       N       E                     dE             d eps       ncg     rms          rms(c)
DAV:   1    -0.143270780150E+02   -0.79397E-03   -0.22913E-02  3232   0.113E+00    0.135E-01
DAV:   2    -0.143271943488E+02   -0.11633E-03   -0.31032E-03  4152   0.589E-01    0.235E-01
DAV:   3    -0.143268236703E+02    0.37068E-03   -0.18772E-03  3880   0.541E-01    0.735E-02
DAV:   4    -0.143267414978E+02    0.82172E-04   -0.18867E-04  4592   0.139E-01    0.113E-02
DAV:   5    -0.143267404241E+02    0.10736E-05   -0.12488E-05  3520   0.235E-02    0.358E-03
DAV:   6    -0.143267405592E+02   -0.13504E-06   -0.81927E-07  3760   0.915E-03    0.156E-03
DAV:   7    -0.143267406808E+02   -0.12159E-06   -0.74648E-08  3680   0.319E-03    0.322E-04
DAV:   8    -0.143267406734E+02    0.73451E-08   -0.69502E-09  1872   0.107E-03
  10 F= -.14326741E+02 E0= -.14326687E+02  d E =-.532357E-02  mag=     0.0000
       N       E                     dE             d eps       ncg     rms          rms(c)
DAV:   1    -0.143420533016E+02   -0.15313E-01   -0.35719E-01  3528   0.520E+00    0.850E-01
DAV:   2    -0.143318176702E+02    0.10236E-01   -0.15542E-02  3488   0.119E+00    0.472E-01
DAV:   3    -0.143322128579E+02   -0.39519E-03   -0.21321E-02  3720   0.189E+00    0.614E-01
DAV:   4    -0.143286249514E+02    0.35879E-02   -0.14291E-02  4008   0.148E+00    0.704E-02
DAV:   5    -0.143285608727E+02    0.64079E-04   -0.39603E-04  3752   0.151E-01    0.166E-02
DAV:   6    -0.143285610102E+02   -0.13754E-06   -0.21200E-05  3616   0.370E-02    0.577E-03
DAV:   7    -0.143285609952E+02    0.14987E-07   -0.15493E-06  4032   0.123E-02    0.106E-03
DAV:   8    -0.143285609558E+02    0.39471E-07   -0.12024E-07  4432   0.386E-03    0.541E-04
DAV:   9    -0.143285609516E+02    0.42228E-08   -0.66632E-09  1840   0.748E-04
  11 F= -.14328561E+02 E0= -.14328833E+02  d E =-.182028E-02  mag=     0.0000
       N       E                     dE             d eps       ncg     rms          rms(c)
DAV:   1    -0.143287285976E+02   -0.16764E-03   -0.41102E-03  3528   0.560E-01    0.908E-02
DAV:   2    -0.143286118662E+02    0.11673E-03   -0.16143E-04  3448   0.131E-01    0.477E-02
DAV:   3    -0.143285929168E+02    0.18949E-04   -0.11991E-04  4472   0.137E-01    0.417E-02
DAV:   4    -0.143285783812E+02    0.14536E-04   -0.76932E-05  3944   0.109E-01    0.931E-03
DAV:   5    -0.143285773224E+02    0.10588E-05   -0.38125E-06  4320   0.173E-02    0.183E-03
DAV:   6    -0.143285773254E+02   -0.30918E-08   -0.22991E-07  3552   0.399E-03    0.663E-04
DAV:   7    -0.143285773124E+02    0.13012E-07   -0.16114E-08  2528   0.145E-03    0.117E-04
DAV:   8    -0.143285773112E+02    0.11946E-08   -0.28937E-09  1632   0.584E-04
  12 F= -.14328577E+02 E0= -.14328883E+02  d E =-.183664E-02  mag=    -0.0000
       N       E                     dE             d eps       ncg     rms          rms(c)
DAV:   1    -0.143931670244E+02   -0.64590E-01   -0.51517E-01  3648   0.101E+01    0.272E+00
DAV:   2    -0.147362551807E+02   -0.34309E+00   -0.25279E+00  3856   0.197E+01    0.692E+00
DAV:   3    -0.143348424415E+02    0.40141E+00   -0.17294E+00  3936   0.144E+01    0.667E-01
DAV:   4    -0.143292156559E+02    0.56268E-02   -0.15624E-02  3488   0.110E+00    0.245E-01
DAV:   5    -0.143286228596E+02    0.59280E-03   -0.16523E-03  4840   0.388E-01    0.251E-02
DAV:   6    -0.143286154539E+02    0.74058E-05   -0.66704E-05  3552   0.901E-02    0.119E-02
DAV:   7    -0.143286150785E+02    0.37535E-06   -0.27265E-06  4464   0.177E-02    0.210E-03
DAV:   8    -0.143286151998E+02   -0.12129E-06   -0.18125E-07  3856   0.362E-03    0.744E-04
DAV:   9    -0.143286152976E+02   -0.97851E-07   -0.23496E-08  2904   0.185E-03    0.105E-04
DAV:  10    -0.143286152932E+02    0.44515E-08   -0.14521E-09  1744   0.344E-04
  13 F= -.14328615E+02 E0= -.14328927E+02  d E =-.379820E-04  mag=     0.0000
       N       E                     dE             d eps       ncg     rms          rms(c)
DAV:   1    -0.143458873212E+02   -0.17272E-01   -0.12401E-01  3648   0.489E+00    0.153E+00
DAV:   2    -0.144508082493E+02   -0.10492E+00   -0.80709E-01  3936   0.111E+01    0.332E+00
DAV:   3    -0.143291698370E+02    0.12164E+00   -0.37401E-01  3896   0.837E+00    0.130E-01
DAV:   4    -0.143290235291E+02    0.14631E-03   -0.57581E-03  3712   0.574E-01    0.164E-01
DAV:   5    -0.143288361515E+02    0.18738E-03   -0.80473E-04  3808   0.351E-01    0.152E-02
DAV:   6    -0.143288340134E+02    0.21381E-05   -0.26090E-05  3648   0.659E-02    0.125E-02
DAV:   7    -0.143288327449E+02    0.12685E-05   -0.77299E-06  4200   0.326E-02    0.333E-03
DAV:   8    -0.143288326002E+02    0.14464E-06   -0.28061E-07  3536   0.378E-03    0.202E-03
DAV:   9    -0.143288325276E+02    0.72632E-07   -0.12772E-07  4144   0.433E-03    0.161E-04
DAV:  10    -0.143288325168E+02    0.10756E-07   -0.53151E-09  1744   0.500E-04    0.782E-05
DAV:  11    -0.143288325107E+02    0.61473E-08   -0.65266E-10  1624   0.224E-04
  14 F= -.14328833E+02 E0= -.14329161E+02  d E =-.255199E-03  mag=     0.0000
