   8   8   0   0
  0.1253134E+02  0.4545045E-09  0.4504575E-09  0.5308015E-09  0.5000000E-15
  1.000000000000000E-004
  CAR 
 unknown system                          
     22.33740408    -58.51923015  301      8.66930978      1.00000000
    -58.519  0.0000E+00  0.0000E+00  0.0000E+00  0.0000E+00
    -58.250  0.0000E+00  0.0000E+00  0.0000E+00  0.0000E+00
    -57.980  0.0000E+00  0.0000E+00  0.0000E+00  0.0000E+00
    -57.711  0.0000E+00  0.0000E+00  0.0000E+00  0.0000E+00
    -57.441  0.0000E+00  0.0000E+00  0.0000E+00  0.0000E+00
    -57.172  0.0000E+00  0.0000E+00  0.0000E+00  0.0000E+00
    -56.902  0.0000E+00  0.0000E+00  0.0000E+00  0.0000E+00
    -56.633  0.0000E+00  0.0000E+00  0.0000E+00  0.0000E+00
    -56.363  0.0000E+00  0.0000E+00  0.0000E+00  0.0000E+00
    -56.094  0.0000E+00  0.0000E+00  0.0000E+00  0.0000E+00
    -55.824  0.0000E+00  0.0000E+00  0.0000E+00  0.0000E+00
    -55.554  0.0000E+00  0.0000E+00  0.0000E+00  0.0000E+00
    -55.285  0.0000E+00  0.0000E+00  0.0000E+00  0.0000E+00
    -55.015  0.0000E+00  0.0000E+00  0.0000E+00  0.0000E+00
    -54.746  0.0000E+00  0.0000E+00  0.4000E+01  0.4000E+01
    -54.476  0.0000E+00  0.0000E+00  0.1100E+02  0.1100E+02
    -54.207  0.0000E+00  0.0000E+00  0.1200E+02  0.1200E+02
    -53.937  0.0000E+00  0.0000E+00  0.1200E+02  0.1200E+02
    -53.668  0.0000E+00  0.0000E+00  0.1200E+02  0.1200E+02
    -53.398  0.0000E+00  0.0000E+00  0.1200E+02  0.1200E+02
    -53.129  0.0000E+00  0.0000E+00  0.1200E+02  0.1200E+02
    -52.859  0.0000E+00  0.0000E+00  0.1200E+02  0.1200E+02
    -52.590  0.0000E+00  0.0000E+00  0.1200E+02  0.1200E+02
    -52.320  0.0000E+00  0.0000E+00  0.1200E+02  0.1200E+02
    -52.051  0.0000E+00  0.0000E+00  0.1200E+02  0.1200E+02
    -51.781  0.0000E+00  0.0000E+00  0.1200E+02  0.1200E+02
    -51.512  0.0000E+00  0.0000E+00  0.1200E+02  0.1200E+02
    -51.242  0.0000E+00  0.0000E+00  0.1200E+02  0.1200E+02
    -50.973  0.0000E+00  0.0000E+00  0.1200E+02  0.1200E+02
    -50.703  0.0000E+00  0.0000E+00  0.1200E+02  0.1200E+02
    -50.434  0.0000E+00  0.0000E+00  0.1200E+02  0.1200E+02
    -50.164  0.0000E+00  0.0000E+00  0.1200E+02  0.1200E+02
    -49.895  0.0000E+00  0.0000E+00  0.1200E+02  0.1200E+02
    -49.625  0.0000E+00  0.0000E+00  0.1200E+02  0.1200E+02
    -49.355  0.0000E+00  0.0000E+00  0.1200E+02  0.1200E+02
    -49.086  0.0000E+00  0.0000E+00  0.1200E+02  0.1200E+02
    -48.816  0.0000E+00  0.0000E+00  0.1200E+02  0.1200E+02
    -48.547  0.0000E+00  0.0000E+00  0.1200E+02  0.1200E+02
    -48.277  0.0000E+00  0.0000E+00  0.1200E+02  0.1200E+02
    -48.008  0.0000E+00  0.0000E+00  0.1200E+02  0.1200E+02
    -47.738  0.0000E+00  0.0000E+00  0.1200E+02  0.1200E+02
    -47.469  0.0000E+00  0.0000E+00  0.1200E+02  0.1200E+02
    -47.199  0.0000E+00  0.0000E+00  0.1200E+02  0.1200E+02
    -46.930  0.0000E+00  0.0000E+00  0.1200E+02  0.1200E+02
    -46.660  0.0000E+00  0.0000E+00  0.1200E+02  0.1200E+02
    -46.391  0.0000E+00  0.0000E+00  0.1200E+02  0.1200E+02
    -46.121  0.0000E+00  0.0000E+00  0.1200E+02  0.1200E+02
    -45.852  0.0000E+00  0.0000E+00  0.1200E+02  0.1200E+02
    -45.582  0.0000E+00  0.0000E+00  0.1200E+02  0.1200E+02
    -45.313  0.0000E+00  0.0000E+00  0.1200E+02  0.1200E+02
    -45.043  0.0000E+00  0.0000E+00  0.1200E+02  0.1200E+02
    -44.774  0.0000E+00  0.0000E+00  0.1200E+02  0.1200E+02
    -44.504  0.0000E+00  0.0000E+00  0.1200E+02  0.1200E+02
    -44.235  0.0000E+00  0.0000E+00  0.1200E+02  0.1200E+02
    -43.965  0.0000E+00  0.0000E+00  0.1200E+02  0.1200E+02
    -43.696  0.0000E+00  0.0000E+00  0.1200E+02  0.1200E+02
    -43.426  0.0000E+00  0.0000E+00  0.1200E+02  0.1200E+02
    -43.156  0.0000E+00  0.0000E+00  0.1200E+02  0.1200E+02
    -42.887  0.0000E+00  0.0000E+00  0.1200E+02  0.1200E+02
    -42.617  0.0000E+00  0.0000E+00  0.1200E+02  0.1200E+02
    -42.348  0.0000E+00  0.0000E+00  0.1200E+02  0.1200E+02
    -42.078  0.0000E+00  0.0000E+00  0.1200E+02  0.1200E+02
    -41.809  0.0000E+00  0.0000E+00  0.1200E+02  0.1200E+02
    -41.539  0.0000E+00  0.0000E+00  0.1200E+02  0.1200E+02
    -41.270  0.0000E+00  0.0000E+00  0.1200E+02  0.1200E+02
    -41.000  0.0000E+00  0.0000E+00  0.1200E+02  0.1200E+02
    -40.731  0.0000E+00  0.0000E+00  0.1200E+02  0.1200E+02
    -40.461  0.0000E+00  0.0000E+00  0.1200E+02  0.1200E+02
    -40.192  0.0000E+00  0.0000E+00  0.1200E+02  0.1200E+02
    -39.922  0.0000E+00  0.0000E+00  0.1200E+02  0.1200E+02
    -39.653  0.0000E+00  0.0000E+00  0.1200E+02  0.1200E+02
    -39.383  0.0000E+00  0.0000E+00  0.1200E+02  0.1200E+02
    -39.114  0.0000E+00  0.0000E+00  0.1200E+02  0.1200E+02
    -38.844  0.0000E+00  0.0000E+00  0.1200E+02  0.1200E+02
    -38.575  0.0000E+00  0.0000E+00  0.1200E+02  0.1200E+02
    -38.305  0.0000E+00  0.0000E+00  0.1200E+02  0.1200E+02
    -38.036  0.0000E+00  0.0000E+00  0.1200E+02  0.1200E+02
    -37.766  0.0000E+00  0.0000E+00  0.1200E+02  0.1200E+02
    -37.497  0.0000E+00  0.0000E+00  0.1200E+02  0.1200E+02
    -37.227  0.0000E+00  0.0000E+00  0.1200E+02  0.1200E+02
    -36.957  0.0000E+00  0.0000E+00  0.1200E+02  0.1200E+02
    -36.688  0.0000E+00  0.0000E+00  0.1200E+02  0.1200E+02
    -36.418  0.0000E+00  0.0000E+00  0.1200E+02  0.1200E+02
    -36.149  0.0000E+00  0.0000E+00  0.1200E+02  0.1200E+02
    -35.879  0.0000E+00  0.0000E+00  0.1200E+02  0.1200E+02
    -35.610  0.0000E+00  0.0000E+00  0.1200E+02  0.1200E+02
    -35.340  0.0000E+00  0.0000E+00  0.1200E+02  0.1200E+02
    -35.071  0.0000E+00  0.0000E+00  0.1200E+02  0.1200E+02
    -34.801  0.0000E+00  0.0000E+00  0.1200E+02  0.1200E+02
    -34.532  0.0000E+00  0.0000E+00  0.1200E+02  0.1200E+02
    -34.262  0.0000E+00  0.0000E+00  0.1200E+02  0.1200E+02
    -33.993  0.0000E+00  0.0000E+00  0.1200E+02  0.1200E+02
    -33.723  0.0000E+00  0.0000E+00  0.1200E+02  0.1200E+02
    -33.454  0.0000E+00  0.0000E+00  0.1200E+02  0.1200E+02
    -33.184  0.0000E+00  0.0000E+00  0.1200E+02  0.1200E+02
    -32.915  0.0000E+00  0.0000E+00  0.1200E+02  0.1200E+02
    -32.645  0.0000E+00  0.0000E+00  0.1200E+02  0.1200E+02
    -32.376  0.0000E+00  0.0000E+00  0.1200E+02  0.1200E+02
    -32.106  0.0000E+00  0.0000E+00  0.1200E+02  0.1200E+02
    -31.837  0.0000E+00  0.0000E+00  0.1200E+02  0.1200E+02
    -31.567  0.0000E+00  0.0000E+00  0.1200E+02  0.1200E+02
    -31.297  0.0000E+00  0.0000E+00  0.1200E+02  0.1200E+02
    -31.028  0.0000E+00  0.0000E+00  0.1200E+02  0.1200E+02
    -30.758  0.0000E+00  0.0000E+00  0.1200E+02  0.1200E+02
    -30.489  0.0000E+00  0.0000E+00  0.1200E+02  0.1200E+02
    -30.219  0.0000E+00  0.0000E+00  0.1200E+02  0.1200E+02
    -29.950  0.0000E+00  0.0000E+00  0.1200E+02  0.1200E+02
    -29.680  0.0000E+00  0.0000E+00  0.1200E+02  0.1200E+02
    -29.411  0.0000E+00  0.0000E+00  0.1200E+02  0.1200E+02
    -29.141  0.0000E+00  0.0000E+00  0.1200E+02  0.1200E+02
    -28.872  0.0000E+00  0.0000E+00  0.1200E+02  0.1200E+02
    -28.602  0.0000E+00  0.0000E+00  0.1200E+02  0.1200E+02
    -28.333  0.0000E+00  0.0000E+00  0.1200E+02  0.1200E+02
    -28.063  0.0000E+00  0.0000E+00  0.1200E+02  0.1200E+02
    -27.794  0.0000E+00  0.0000E+00  0.1200E+02  0.1200E+02
    -27.524  0.0000E+00  0.0000E+00  0.1200E+02  0.1200E+02
    -27.255  0.0000E+00  0.0000E+00  0.1200E+02  0.1200E+02
    -26.985  0.0000E+00  0.0000E+00  0.1200E+02  0.1200E+02
    -26.716  0.0000E+00  0.0000E+00  0.1200E+02  0.1200E+02
    -26.446  0.0000E+00  0.0000E+00  0.1200E+02  0.1200E+02
    -26.177  0.0000E+00  0.0000E+00  0.1200E+02  0.1200E+02
    -25.907  0.0000E+00  0.0000E+00  0.1200E+02  0.1200E+02
    -25.638  0.0000E+00  0.0000E+00  0.1200E+02  0.1200E+02
    -25.368  0.0000E+00  0.0000E+00  0.1200E+02  0.1200E+02
    -25.098  0.0000E+00  0.0000E+00  0.1200E+02  0.1200E+02
    -24.829  0.0000E+00  0.0000E+00  0.1200E+02  0.1200E+02
    -24.559  0.0000E+00  0.0000E+00  0.1200E+02  0.1200E+02
    -24.290  0.0000E+00  0.0000E+00  0.1200E+02  0.1200E+02
    -24.020  0.0000E+00  0.0000E+00  0.1200E+02  0.1200E+02
    -23.751  0.0000E+00  0.0000E+00  0.1200E+02  0.1200E+02
    -23.481  0.0000E+00  0.0000E+00  0.1200E+02  0.1200E+02
    -23.212  0.0000E+00  0.0000E+00  0.1200E+02  0.1200E+02
    -22.942  0.0000E+00  0.0000E+00  0.1200E+02  0.1200E+02
    -22.673  0.0000E+00  0.0000E+00  0.1200E+02  0.1200E+02
    -22.403  0.0000E+00  0.0000E+00  0.1200E+02  0.1200E+02
    -22.134  0.0000E+00  0.0000E+00  0.1200E+02  0.1200E+02
    -21.864  0.0000E+00  0.0000E+00  0.1200E+02  0.1200E+02
    -21.595  0.0000E+00  0.0000E+00  0.1200E+02  0.1200E+02
    -21.325  0.0000E+00  0.0000E+00  0.1200E+02  0.1200E+02
    -21.056  0.0000E+00  0.0000E+00  0.1200E+02  0.1200E+02
    -20.786  0.0000E+00  0.0000E+00  0.1200E+02  0.1200E+02
    -20.517  0.0000E+00  0.0000E+00  0.1200E+02  0.1200E+02
    -20.247  0.0000E+00  0.0000E+00  0.1200E+02  0.1200E+02
    -19.978  0.0000E+00  0.0000E+00  0.1200E+02  0.1200E+02
    -19.708  0.0000E+00  0.0000E+00  0.1200E+02  0.1200E+02
    -19.439  0.0000E+00  0.0000E+00  0.1200E+02  0.1200E+02
    -19.169  0.0000E+00  0.0000E+00  0.1200E+02  0.1200E+02
    -18.899  0.0000E+00  0.0000E+00  0.1200E+02  0.1200E+02
    -18.630  0.0000E+00  0.0000E+00  0.1200E+02  0.1200E+02
    -18.360  0.0000E+00  0.0000E+00  0.1200E+02  0.1200E+02
    -18.091  0.0000E+00  0.0000E+00  0.1200E+02  0.1200E+02
    -17.821  0.0000E+00  0.0000E+00  0.1200E+02  0.1200E+02
    -17.552  0.0000E+00  0.0000E+00  0.1200E+02  0.1200E+02
    -17.282  0.0000E+00  0.0000E+00  0.1200E+02  0.1200E+02
    -17.013  0.0000E+00  0.0000E+00  0.1200E+02  0.1200E+02
    -16.743  0.0000E+00  0.0000E+00  0.1200E+02  0.1200E+02
    -16.474  0.0000E+00  0.0000E+00  0.1200E+02  0.1200E+02
    -16.204  0.0000E+00  0.0000E+00  0.1200E+02  0.1200E+02
    -15.935  0.0000E+00  0.0000E+00  0.1200E+02  0.1200E+02
    -15.665  0.0000E+00  0.0000E+00  0.1200E+02  0.1200E+02
    -15.396  0.0000E+00  0.0000E+00  0.1200E+02  0.1200E+02
    -15.126  0.0000E+00  0.0000E+00  0.1200E+02  0.1200E+02
    -14.857  0.0000E+00  0.0000E+00  0.1200E+02  0.1200E+02
    -14.587  0.0000E+00  0.0000E+00  0.1200E+02  0.1200E+02
    -14.318  0.0000E+00  0.0000E+00  0.1200E+02  0.1200E+02
    -14.048  0.0000E+00  0.0000E+00  0.1200E+02  0.1200E+02
    -13.779  0.0000E+00  0.0000E+00  0.1200E+02  0.1200E+02
    -13.509  0.0000E+00  0.0000E+00  0.1200E+02  0.1200E+02
    -13.240  0.0000E+00  0.0000E+00  0.1200E+02  0.1200E+02
    -12.970  0.0000E+00  0.0000E+00  0.1200E+02  0.1200E+02
    -12.700  0.0000E+00  0.0000E+00  0.1200E+02  0.1200E+02
    -12.431  0.0000E+00  0.0000E+00  0.1200E+02  0.1200E+02
    -12.161  0.0000E+00  0.0000E+00  0.1200E+02  0.1200E+02
    -11.892  0.0000E+00  0.0000E+00  0.1200E+02  0.1200E+02
    -11.622  0.0000E+00  0.0000E+00  0.1200E+02  0.1200E+02
    -11.353  0.0000E+00  0.0000E+00  0.1200E+02  0.1200E+02
    -11.083  0.0000E+00  0.0000E+00  0.1200E+02  0.1200E+02
    -10.814  0.0000E+00  0.0000E+00  0.1200E+02  0.1200E+02
    -10.544  0.0000E+00  0.0000E+00  0.1200E+02  0.1200E+02
    -10.275  0.0000E+00  0.0000E+00  0.1200E+02  0.1200E+02
    -10.005  0.0000E+00  0.0000E+00  0.1200E+02  0.1200E+02
     -9.736  0.0000E+00  0.0000E+00  0.1200E+02  0.1200E+02
     -9.466  0.0000E+00  0.0000E+00  0.1200E+02  0.1200E+02
     -9.197  0.0000E+00  0.0000E+00  0.1200E+02  0.1200E+02
     -8.927  0.0000E+00  0.0000E+00  0.1200E+02  0.1200E+02
     -8.658  0.0000E+00  0.0000E+00  0.1200E+02  0.1200E+02
     -8.388  0.0000E+00  0.0000E+00  0.1200E+02  0.1200E+02
     -8.119  0.0000E+00  0.0000E+00  0.1200E+02  0.1200E+02
     -7.849  0.0000E+00  0.0000E+00  0.1200E+02  0.1200E+02
     -7.580  0.0000E+00  0.0000E+00  0.1200E+02  0.1200E+02
     -7.310  0.0000E+00  0.0000E+00  0.1200E+02  0.1200E+02
     -7.041  0.0000E+00  0.0000E+00  0.1200E+02  0.1200E+02
     -6.771  0.0000E+00  0.0000E+00  0.1200E+02  0.1200E+02
     -6.501  0.0000E+00  0.0000E+00  0.1200E+02  0.1200E+02
     -6.232  0.0000E+00  0.0000E+00  0.1200E+02  0.1200E+02
     -5.962  0.0000E+00  0.0000E+00  0.1200E+02  0.1200E+02
     -5.693  0.0000E+00  0.0000E+00  0.1200E+02  0.1200E+02
     -5.423  0.0000E+00  0.0000E+00  0.1200E+02  0.1200E+02
     -5.154  0.0000E+00  0.0000E+00  0.1200E+02  0.1200E+02
     -4.884  0.0000E+00  0.0000E+00  0.1200E+02  0.1200E+02
     -4.615  0.0000E+00  0.0000E+00  0.1200E+02  0.1200E+02
     -4.345  0.0000E+00  0.0000E+00  0.1200E+02  0.1200E+02
     -4.076  0.0000E+00  0.0000E+00  0.1200E+02  0.1200E+02
     -3.806  0.0000E+00  0.0000E+00  0.1200E+02  0.1200E+02
     -3.537  0.0000E+00  0.0000E+00  0.1200E+02  0.1200E+02
     -3.267  0.0000E+00  0.0000E+00  0.1200E+02  0.1200E+02
     -2.998  0.0000E+00  0.0000E+00  0.1200E+02  0.1200E+02
     -2.728  0.0000E+00  0.0000E+00  0.1200E+02  0.1200E+02
     -2.459  0.0000E+00  0.0000E+00  0.1200E+02  0.1200E+02
     -2.189  0.5808E-02  0.5808E-02  0.1200E+02  0.1200E+02
     -1.920  0.1824E+00  0.1824E+00  0.1202E+02  0.1202E+02
     -1.650  0.2492E+00  0.2492E+00  0.1208E+02  0.1208E+02
     -1.381  0.3402E+00  0.3402E+00  0.1216E+02  0.1216E+02
     -1.111  0.4637E+00  0.4637E+00  0.1227E+02  0.1227E+02
     -0.841  0.5838E+00  0.5838E+00  0.1241E+02  0.1241E+02
     -0.572  0.6084E+00  0.6084E+00  0.1257E+02  0.1257E+02
     -0.302  0.5225E+00  0.5225E+00  0.1273E+02  0.1273E+02
     -0.033  0.4002E+00  0.4002E+00  0.1285E+02  0.1285E+02
      0.237  0.4079E+00  0.4079E+00  0.1296E+02  0.1296E+02
      0.506  0.3928E+00  0.3928E+00  0.1306E+02  0.1306E+02
      0.776  0.6459E+00  0.6459E+00  0.1319E+02  0.1319E+02
      1.045  0.1063E+01  0.1063E+01  0.1344E+02  0.1344E+02
      1.315  0.6700E+00  0.6700E+00  0.1366E+02  0.1366E+02
      1.584  0.6058E+00  0.6058E+00  0.1382E+02  0.1382E+02
      1.854  0.9131E+00  0.9131E+00  0.1402E+02  0.1402E+02
      2.123  0.8269E+00  0.8269E+00  0.1426E+02  0.1426E+02
      2.393  0.7065E+00  0.7065E+00  0.1447E+02  0.1447E+02
      2.662  0.8578E+00  0.8578E+00  0.1466E+02  0.1466E+02
      2.932  0.1007E+01  0.1007E+01  0.1493E+02  0.1493E+02
      3.201  0.1169E+01  0.1169E+01  0.1522E+02  0.1522E+02
      3.471  0.1186E+01  0.1186E+01  0.1555E+02  0.1555E+02
      3.740  0.1328E+01  0.1328E+01  0.1588E+02  0.1588E+02
      4.010  0.1106E+01  0.1106E+01  0.1621E+02  0.1621E+02
      4.279  0.1896E+01  0.1896E+01  0.1660E+02  0.1660E+02
      4.549  0.1768E+01  0.1768E+01  0.1707E+02  0.1707E+02
      4.818  0.1612E+01  0.1612E+01  0.1755E+02  0.1755E+02
      5.088  0.2631E+01  0.2631E+01  0.1814E+02  0.1814E+02
      5.358  0.3126E+01  0.3126E+01  0.1889E+02  0.1889E+02
      5.627  0.3486E+01  0.3486E+01  0.1996E+02  0.1996E+02
      5.897  0.6151E+01  0.6151E+01  0.2143E+02  0.2143E+02
      6.166  0.9654E+01  0.9654E+01  0.2338E+02  0.2338E+02
      6.436  0.9022E+01  0.9022E+01  0.2536E+02  0.2536E+02
      6.705  0.4620E+01  0.4620E+01  0.2722E+02  0.2722E+02
      6.975  0.4152E+01  0.4152E+01  0.2868E+02  0.2868E+02
      7.244  0.7524E+01  0.7524E+01  0.3045E+02  0.3045E+02
      7.514  0.8044E+01  0.8044E+01  0.3295E+02  0.3295E+02
      7.783  0.1529E+01  0.1529E+01  0.3501E+02  0.3501E+02
      8.053  0.4949E+01  0.4949E+01  0.3601E+02  0.3601E+02
      8.322  0.2605E+01  0.2605E+01  0.3717E+02  0.3717E+02
      8.592  0.2230E+01  0.2230E+01  0.3783E+02  0.3783E+02
      8.861  0.1817E+01  0.1817E+01  0.3839E+02  0.3839E+02
      9.131  0.1328E+01  0.1328E+01  0.3881E+02  0.3881E+02
      9.400  0.1397E+01  0.1397E+01  0.3917E+02  0.3917E+02
      9.670  0.1318E+01  0.1318E+01  0.3951E+02  0.3951E+02
      9.939  0.7497E+00  0.7497E+00  0.3980E+02  0.3980E+02
     10.209  0.1483E+01  0.1483E+01  0.4011E+02  0.4011E+02
     10.478  0.1461E+01  0.1461E+01  0.4050E+02  0.4050E+02
     10.748  0.1723E+01  0.1723E+01  0.4095E+02  0.4095E+02
     11.017  0.1441E+01  0.1441E+01  0.4138E+02  0.4138E+02
     11.287  0.1601E+01  0.1601E+01  0.4179E+02  0.4179E+02
     11.557  0.1199E+01  0.1199E+01  0.4215E+02  0.4215E+02
     11.826  0.1267E+01  0.1267E+01  0.4248E+02  0.4248E+02
     12.096  0.1025E+01  0.1025E+01  0.4279E+02  0.4279E+02
     12.365  0.1081E+01  0.1081E+01  0.4307E+02  0.4307E+02
     12.635  0.1350E+01  0.1350E+01  0.4340E+02  0.4340E+02
     12.904  0.1477E+01  0.1477E+01  0.4378E+02  0.4378E+02
     13.174  0.1598E+01  0.1598E+01  0.4419E+02  0.4419E+02
     13.443  0.1867E+01  0.1867E+01  0.4465E+02  0.4465E+02
     13.713  0.1528E+01  0.1528E+01  0.4509E+02  0.4509E+02
     13.982  0.1573E+01  0.1573E+01  0.4554E+02  0.4554E+02
     14.252  0.1187E+01  0.1187E+01  0.4590E+02  0.4590E+02
     14.521  0.1464E+01  0.1464E+01  0.4626E+02  0.4626E+02
     14.791  0.1567E+01  0.1567E+01  0.4668E+02  0.4668E+02
     15.060  0.1514E+01  0.1514E+01  0.4711E+02  0.4711E+02
     15.330  0.1385E+01  0.1385E+01  0.4749E+02  0.4749E+02
     15.599  0.1754E+01  0.1754E+01  0.4790E+02  0.4790E+02
     15.869  0.1527E+01  0.1527E+01  0.4835E+02  0.4835E+02
     16.138  0.1518E+01  0.1518E+01  0.4874E+02  0.4874E+02
     16.408  0.1652E+01  0.1652E+01  0.4919E+02  0.4919E+02
     16.677  0.1636E+01  0.1636E+01  0.4962E+02  0.4962E+02
     16.947  0.1677E+01  0.1677E+01  0.5007E+02  0.5007E+02
     17.216  0.1870E+01  0.1870E+01  0.5055E+02  0.5055E+02
     17.486  0.1687E+01  0.1687E+01  0.5105E+02  0.5105E+02
     17.756  0.1238E+01  0.1238E+01  0.5145E+02  0.5145E+02
     18.025  0.8220E+00  0.8220E+00  0.5171E+02  0.5171E+02
     18.295  0.6124E+00  0.6124E+00  0.5192E+02  0.5192E+02
     18.564  0.4304E-01  0.4304E-01  0.5200E+02  0.5200E+02
     18.834  0.0000E+00  0.0000E+00  0.5200E+02  0.5200E+02
     19.103  0.0000E+00  0.0000E+00  0.5200E+02  0.5200E+02
     19.373  0.0000E+00  0.0000E+00  0.5200E+02  0.5200E+02
     19.642  0.0000E+00  0.0000E+00  0.5200E+02  0.5200E+02
     19.912  0.0000E+00  0.0000E+00  0.5200E+02  0.5200E+02
     20.181  0.0000E+00  0.0000E+00  0.5200E+02  0.5200E+02
     20.451  0.0000E+00  0.0000E+00  0.5200E+02  0.5200E+02
     20.720  0.0000E+00  0.0000E+00  0.5200E+02  0.5200E+02
     20.990  0.0000E+00  0.0000E+00  0.5200E+02  0.5200E+02
     21.259  0.0000E+00  0.0000E+00  0.5200E+02  0.5200E+02
     21.529  0.0000E+00  0.0000E+00  0.5200E+02  0.5200E+02
     21.798  0.0000E+00  0.0000E+00  0.5200E+02  0.5200E+02
     22.068  0.0000E+00  0.0000E+00  0.5200E+02  0.5200E+02
     22.337  0.0000E+00  0.0000E+00  0.5200E+02  0.5200E+02
