       N       E                     dE             d eps       ncg     rms          rms(c)
DAV:   1     0.863860810262E+03    0.86386E+03   -0.43812E+04 16232   0.163E+03
DAV:   2     0.131621472569E+02   -0.85070E+03   -0.81325E+03 13236   0.522E+02
DAV:   3    -0.444072923920E+02   -0.57569E+02   -0.53341E+02 15188   0.152E+02
DAV:   4    -0.463355282127E+02   -0.19282E+01   -0.19131E+01 15040   0.264E+01
DAV:   5    -0.463848770779E+02   -0.49349E-01   -0.49334E-01 15404   0.439E+00    0.296E+01
DAV:   6    -0.640816176910E+02   -0.17697E+02   -0.15589E+02 14828   0.141E+02    0.404E+01
DAV:   7    -0.401365980706E+02    0.23945E+02   -0.57701E+01 14744   0.918E+01    0.655E+00
DAV:   8    -0.400329039391E+02    0.10369E+00   -0.54165E+00 17860   0.186E+01    0.394E+00
DAV:   9    -0.400344792257E+02   -0.15753E-02   -0.95264E-01 15332   0.144E+01    0.386E+00
DAV:  10    -0.399182265977E+02    0.11625E+00   -0.43998E-01 15444   0.979E+00    0.102E+00
DAV:  11    -0.399222500671E+02   -0.40235E-02   -0.54760E-02 16248   0.353E+00    0.992E-01
DAV:  12    -0.399134703774E+02    0.87797E-02   -0.25504E-02 14972   0.296E+00    0.382E-01
DAV:  13    -0.399137341009E+02   -0.26372E-03   -0.88491E-03 16864   0.105E+00    0.242E-01
DAV:  14    -0.399136521218E+02    0.81979E-04   -0.16917E-03 15612   0.724E-01    0.224E-01
DAV:  15    -0.399132174528E+02    0.43467E-03   -0.65459E-04 16920   0.426E-01    0.102E-01
DAV:  16    -0.399131055785E+02    0.11187E-03   -0.36999E-04 17572   0.165E-01    0.126E-02
DAV:  17    -0.399131069492E+02   -0.13708E-05   -0.29056E-05 14212   0.383E-02    0.845E-03
DAV:  18    -0.399131060162E+02    0.93306E-06   -0.24746E-06 16036   0.148E-02    0.167E-03
DAV:  19    -0.399131059509E+02    0.65220E-07   -0.21753E-07 15080   0.481E-03    0.223E-03
DAV:  20    -0.399131058056E+02    0.14539E-06   -0.10680E-07 14608   0.347E-03    0.476E-04
DAV:  21    -0.399131057741E+02    0.31447E-07   -0.23238E-08  8832   0.131E-03    0.235E-04
DAV:  22    -0.399131057781E+02   -0.40418E-08   -0.64529E-09  7272   0.875E-04
   1 F= -.39913106E+02 E0= -.39913234E+02  d E =-.399131E+02  mag=     0.0000
       N       E                     dE             d eps       ncg     rms          rms(c)
DAV:   1    -0.210768218423E+03   -0.17086E+03   -0.21725E+03 13176   0.562E+02    0.993E+01
DAV:   2    -0.962385121083E+02    0.11453E+03   -0.10478E+03 15040   0.249E+02    0.649E+01
DAV:   3    -0.685988152379E+02    0.27640E+02   -0.34045E+02 14632   0.178E+02    0.462E+01
DAV:   4    -0.418721883926E+02    0.26727E+02   -0.83957E+01 14960   0.982E+01    0.684E+00
DAV:   5    -0.416447608880E+02    0.22743E+00   -0.48328E+00 17640   0.253E+01    0.747E+00
DAV:   6    -0.410694194640E+02    0.57534E+00   -0.30931E+00 14464   0.216E+01    0.731E+00
DAV:   7    -0.407259105155E+02    0.34351E+00   -0.12158E+00 17664   0.151E+01    0.679E+00
DAV:   8    -0.404928448849E+02    0.23307E+00   -0.10229E+00 16024   0.116E+01    0.155E+00
DAV:   9    -0.404629282038E+02    0.29917E-01   -0.12274E-01 15712   0.309E+00    0.537E-01
DAV:  10    -0.404610725471E+02    0.18557E-02   -0.19037E-02 15368   0.148E+00    0.285E-01
DAV:  11    -0.404609804812E+02    0.92066E-04   -0.27941E-03 15800   0.777E-01    0.202E-01
DAV:  12    -0.404609059962E+02    0.74485E-04   -0.15236E-03 17328   0.639E-01    0.127E-01
DAV:  13    -0.404608462648E+02    0.59731E-04   -0.44577E-04 16504   0.283E-01    0.476E-02
DAV:  14    -0.404608297853E+02    0.16479E-04   -0.77770E-05 15880   0.854E-02    0.127E-02
DAV:  15    -0.404608298745E+02   -0.89140E-07   -0.84515E-06 13964   0.308E-02    0.554E-03
DAV:  16    -0.404608299039E+02   -0.29486E-07   -0.48023E-07 17156   0.628E-03    0.340E-03
DAV:  17    -0.404608299486E+02   -0.44674E-07   -0.33176E-07 18184   0.604E-03    0.308E-04
DAV:  18    -0.404608299240E+02    0.24600E-07   -0.71766E-08 12224   0.241E-03    0.200E-04
DAV:  19    -0.404608299215E+02    0.25611E-08   -0.14336E-09  7304   0.395E-04
   2 F= -.40460830E+02 E0= -.40460283E+02  d E =-.547724E+00  mag=     0.0000
       N       E                     dE             d eps       ncg     rms          rms(c)
DAV:   1    -0.986728922399E+02   -0.58212E+02   -0.47465E+02 14248   0.211E+02    0.797E+01
DAV:   2    -0.168003321833E+03   -0.69330E+02   -0.96622E+02 13624   0.349E+02    0.713E+01
DAV:   3    -0.512703760959E+02    0.11673E+03   -0.33383E+02 14760   0.157E+02    0.224E+01
DAV:   4    -0.515104685279E+02   -0.24009E+00   -0.43856E+00 13944   0.129E+01    0.225E+01
DAV:   5    -0.502442187632E+02    0.12662E+01   -0.30694E-01 16280   0.769E+00    0.207E+01
DAV:   6    -0.488086365575E+02    0.14356E+01   -0.58970E-01 14976   0.114E+01    0.180E+01
DAV:   7    -0.478565495068E+02    0.95209E+00   -0.35653E+01 14800   0.723E+01    0.257E+01
DAV:   8    -0.460186387508E+02    0.18379E+01   -0.69810E+00 15968   0.258E+01    0.180E+01
DAV:   9    -0.456757849865E+02    0.34285E+00   -0.92810E-01 18080   0.141E+01    0.185E+01
DAV:  10    -0.437416178330E+02    0.19342E+01   -0.13941E+00 14864   0.114E+01    0.134E+01
DAV:  11    -0.435265597734E+02    0.21506E+00   -0.25043E-01 15136   0.598E+00    0.134E+01
DAV:  12    -0.431841433478E+02    0.34242E+00   -0.18060E-01 14992   0.496E+00    0.127E+01
DAV:  13    -0.429239684715E+02    0.26017E+00   -0.91236E-02 14760   0.255E+00    0.117E+01
DAV:  14    -0.425489492234E+02    0.37502E+00   -0.11727E-01 13608   0.222E+00    0.106E+01
DAV:  15    -0.413643058478E+02    0.11846E+01   -0.17784E+00 14936   0.113E+01    0.426E+00
DAV:  16    -0.413717628553E+02   -0.74570E-02   -0.97887E-02 14640   0.316E+00    0.460E+00
DAV:  17    -0.413050288554E+02    0.66734E-01   -0.20261E-02 14960   0.139E+00    0.402E+00
DAV:  18    -0.410756788789E+02    0.22935E+00   -0.51134E-01 14744   0.546E+00    0.970E-01
DAV:  19    -0.410719717436E+02    0.37071E-02   -0.30517E-02 14744   0.137E+00    0.631E-01
DAV:  20    -0.410689611683E+02    0.30106E-02   -0.36086E-03 17120   0.611E-01    0.310E-01
DAV:  21    -0.410680181556E+02    0.94301E-03   -0.34256E-03 15064   0.594E-01    0.445E-02
DAV:  22    -0.410680459652E+02   -0.27810E-04   -0.47486E-04 14224   0.179E-01    0.280E-02
DAV:  23    -0.410680490553E+02   -0.30901E-05   -0.55948E-05 16872   0.104E-01    0.446E-02
DAV:  24    -0.410680498196E+02   -0.76432E-06   -0.17440E-05 17488   0.617E-02    0.303E-02
DAV:  25    -0.410680328919E+02    0.16928E-04   -0.30120E-05 15152   0.583E-02    0.868E-03
DAV:  26    -0.410680318746E+02    0.10173E-05   -0.51269E-06 15080   0.201E-02    0.342E-03
DAV:  27    -0.410680325171E+02   -0.64246E-06   -0.21982E-06 14536   0.165E-02    0.734E-03
DAV:  28    -0.410680314231E+02    0.10940E-05   -0.15252E-06 14912   0.113E-02    0.184E-03
DAV:  29    -0.410680312809E+02    0.14223E-06   -0.15918E-07 15112   0.326E-03    0.532E-04
DAV:  30    -0.410680313237E+02   -0.42815E-07   -0.15263E-08  7344   0.184E-03    0.660E-04
DAV:  31    -0.410680313403E+02   -0.16604E-07   -0.30353E-09  7088   0.421E-04    0.579E-04
DAV:  32    -0.410680313222E+02    0.18163E-07   -0.25098E-09  7024   0.465E-04    0.326E-04
DAV:  33    -0.410680313173E+02    0.49040E-08   -0.16767E-09  6984   0.398E-04
   3 F= -.41068031E+02 E0= -.41067919E+02  d E =-.115493E+01  mag=    -0.0000
       N       E                     dE             d eps       ncg     rms          rms(c)
DAV:   1    -0.410781666805E+02   -0.10135E-01   -0.78834E-02 13856   0.299E+00    0.108E+00
DAV:   2    -0.411089023636E+02   -0.30736E-01   -0.25635E-01 14880   0.488E+00    0.196E+00
DAV:   3    -0.410683906772E+02    0.40512E-01   -0.12408E-01 14720   0.350E+00    0.235E-01
DAV:   4    -0.410683867484E+02    0.39288E-05   -0.44029E-03 17528   0.899E-01    0.164E-01
DAV:   5    -0.410681870434E+02    0.19970E-03   -0.43104E-04 15904   0.311E-01    0.578E-02
DAV:   6    -0.410681938660E+02   -0.68226E-05   -0.17505E-04 16912   0.236E-01    0.698E-02
DAV:   7    -0.410681617158E+02    0.32150E-04   -0.98398E-05 15024   0.182E-01    0.662E-03
DAV:   8    -0.410681614363E+02    0.27954E-06   -0.88394E-06 13976   0.211E-02    0.342E-03
DAV:   9    -0.410681612781E+02    0.15820E-06   -0.83416E-07 15064   0.133E-02    0.323E-03
DAV:  10    -0.410681611774E+02    0.10071E-06   -0.31122E-07 14976   0.950E-03    0.838E-04
DAV:  11    -0.410681610733E+02    0.10405E-06   -0.37037E-08 10448   0.237E-03    0.327E-04
DAV:  12    -0.410681610282E+02    0.45140E-07   -0.44582E-09  7168   0.787E-04    0.706E-05
DAV:  13    -0.410681610151E+02    0.13097E-07   -0.97330E-10  7008   0.299E-04    0.471E-05
DAV:  14    -0.410681610113E+02    0.37890E-08   -0.22771E-10  6936   0.160E-04
   4 F= -.41068161E+02 E0= -.41068056E+02  d E =-.115506E+01  mag=    -0.0000
       N       E                     dE             d eps       ncg     rms          rms(c)
DAV:   1    -0.410916110561E+02   -0.23450E-01   -0.77794E+00 15016   0.672E+01    0.484E+00
DAV:   2    -0.416249307655E+02   -0.53332E+00   -0.57790E+00 14896   0.230E+01    0.651E+00
DAV:   3    -0.411886373515E+02    0.43629E+00   -0.17006E+00 14792   0.154E+01    0.234E+00
DAV:   4    -0.412012551238E+02   -0.12618E-01   -0.37219E-01 15288   0.101E+01    0.286E+00
DAV:   5    -0.411388547360E+02    0.62400E-01   -0.16446E-01 16016   0.590E+00    0.242E-01
DAV:   6    -0.411422474836E+02   -0.33927E-02   -0.26895E-02 17200   0.225E+00    0.695E-01
DAV:   7    -0.411393669406E+02    0.28805E-02   -0.10769E-02 14880   0.177E+00    0.988E-02
DAV:   8    -0.411394428254E+02   -0.75885E-04   -0.12431E-03 18072   0.455E-01    0.131E-01
DAV:   9    -0.411393550974E+02    0.87728E-04   -0.39871E-04 15112   0.369E-01    0.464E-02
DAV:  10    -0.411393590205E+02   -0.39231E-05   -0.87292E-05 15336   0.899E-02    0.154E-02
DAV:  11    -0.411393583496E+02    0.67089E-06   -0.97160E-06 14960   0.443E-02    0.445E-03
DAV:  12    -0.411393582239E+02    0.12571E-06   -0.13347E-06 14608   0.150E-02    0.175E-03
DAV:  13    -0.411393581478E+02    0.76088E-07   -0.15549E-07 14944   0.668E-03    0.582E-04
DAV:  14    -0.411393581236E+02    0.24233E-07   -0.18570E-08  7800   0.188E-03    0.108E-04
DAV:  15    -0.411393581157E+02    0.79253E-08   -0.37384E-09  7400   0.479E-04
   5 F= -.41139358E+02 E0= -.41138830E+02  d E =-.711971E-01  mag=    -0.0000
       N       E                     dE             d eps       ncg     rms          rms(c)
DAV:   1    -0.411141303503E+02    0.25228E-01   -0.11563E+01 15024   0.820E+01    0.600E+00
DAV:   2    -0.419158336494E+02   -0.80170E+00   -0.86843E+00 14872   0.284E+01    0.796E+00
DAV:   3    -0.412417549786E+02    0.67408E+00   -0.25412E+00 14768   0.192E+01    0.279E+00
DAV:   4    -0.412618227408E+02   -0.20068E-01   -0.53561E-01 15464   0.123E+01    0.347E+00
DAV:   5    -0.411710463561E+02    0.90776E-01   -0.26669E-01 16840   0.712E+00    0.375E-01
DAV:   6    -0.411783309796E+02   -0.72846E-02   -0.51877E-02 17928   0.336E+00    0.108E+00
DAV:   7    -0.411712878078E+02    0.70432E-02   -0.25810E-02 15056   0.252E+00    0.121E-01
DAV:   8    -0.411713813682E+02   -0.93560E-04   -0.21219E-03 16320   0.487E-01    0.124E-01
DAV:   9    -0.411713168876E+02    0.64481E-04   -0.46896E-04 15136   0.412E-01    0.551E-02
DAV:  10    -0.411713236213E+02   -0.67336E-05   -0.11020E-04 14880   0.121E-01    0.195E-02
DAV:  11    -0.411713226708E+02    0.95051E-06   -0.12360E-05 15472   0.441E-02    0.503E-03
DAV:  12    -0.411713225418E+02    0.12894E-06   -0.16455E-06 14712   0.136E-02    0.164E-03
DAV:  13    -0.411713224400E+02    0.10187E-06   -0.18893E-07 15568   0.647E-03    0.826E-04
DAV:  14    -0.411713224232E+02    0.16820E-07   -0.21212E-08  7848   0.220E-03    0.183E-04
DAV:  15    -0.411713224101E+02    0.13104E-07   -0.47490E-09  7540   0.547E-04    0.701E-05
DAV:  16    -0.411713224078E+02    0.22083E-08   -0.11782E-09  7288   0.341E-04
   6 F= -.41171322E+02 E0= -.41170820E+02  d E =-.103161E+00  mag=    -0.0000
       N       E                     dE             d eps       ncg     rms          rms(c)
DAV:   1    -0.412003140203E+02   -0.28992E-01   -0.11715E+01 15152   0.934E+01    0.704E+00
DAV:   2    -0.425900489671E+02   -0.13897E+01   -0.14092E+01 14848   0.343E+01    0.115E+01
DAV:   3    -0.412402390619E+02    0.13498E+01   -0.45046E+00 14680   0.214E+01    0.222E+00
DAV:   4    -0.412473085472E+02   -0.70695E-02   -0.31729E-01 17792   0.843E+00    0.255E+00
DAV:   5    -0.411994975539E+02    0.47811E-01   -0.15531E-01 15448   0.628E+00    0.408E-01
DAV:   6    -0.411994812646E+02    0.16289E-04   -0.19516E-02 16096   0.151E+00    0.430E-01
DAV:   7    -0.411984519830E+02    0.10293E-02   -0.52038E-03 14960   0.127E+00    0.119E-01
DAV:   8    -0.411984251266E+02    0.26856E-04   -0.16704E-03 14944   0.464E-01    0.136E-01
DAV:   9    -0.411983790293E+02    0.46097E-04   -0.51536E-04 15016   0.416E-01    0.101E-01
DAV:  10    -0.411983116649E+02    0.67364E-04   -0.29285E-04 15008   0.219E-01    0.201E-02
DAV:  11    -0.411983153677E+02   -0.37028E-05   -0.28329E-05 14120   0.544E-02    0.116E-02
DAV:  12    -0.411983147666E+02    0.60105E-06   -0.59664E-06 14928   0.260E-02    0.173E-03
DAV:  13    -0.411983149348E+02   -0.16813E-06   -0.44451E-07 14776   0.751E-03    0.107E-03
DAV:  14    -0.411983149663E+02   -0.31534E-07   -0.41538E-08 11608   0.262E-03    0.230E-04
DAV:  15    -0.411983149768E+02   -0.10541E-07   -0.51313E-09  7512   0.626E-04    0.896E-05
DAV:  16    -0.411983149764E+02    0.47112E-09   -0.10543E-09  7192   0.303E-04
   7 F= -.41198315E+02 E0= -.41198083E+02  d E =-.269926E-01  mag=    -0.0000
       N       E                     dE             d eps       ncg     rms          rms(c)
DAV:   1    -0.412000511152E+02   -0.17361E-02   -0.94626E-01 15256   0.271E+01    0.206E+00
DAV:   2    -0.413233306427E+02   -0.12328E+00   -0.11369E+00 14864   0.998E+00    0.337E+00
DAV:   3    -0.412028415144E+02    0.12049E+00   -0.39380E-01 14680   0.639E+00    0.595E-01
DAV:   4    -0.412036758132E+02   -0.83430E-03   -0.24628E-02 17792   0.261E+00    0.722E-01
DAV:   5    -0.411998206909E+02    0.38551E-02   -0.11466E-02 15264   0.191E+00    0.113E-01
DAV:   6    -0.411998557692E+02   -0.35078E-04   -0.16218E-03 17784   0.431E-01    0.127E-01
DAV:   7    -0.411997733086E+02    0.82461E-04   -0.52338E-04 14936   0.400E-01    0.370E-02
DAV:   8    -0.411997673411E+02    0.59675E-05   -0.13927E-04 14952   0.137E-01    0.316E-02
DAV:   9    -0.411997641309E+02    0.32102E-05   -0.33596E-05 14840   0.970E-02    0.239E-02
DAV:  10    -0.411997612042E+02    0.29267E-05   -0.16026E-05 15016   0.723E-02    0.664E-03
DAV:  11    -0.411997618187E+02   -0.61446E-06   -0.21183E-06 14776   0.160E-02    0.350E-03
DAV:  12    -0.411997618813E+02   -0.62622E-07   -0.50033E-07 14928   0.698E-03    0.546E-04
DAV:  13    -0.411997619305E+02   -0.49140E-07   -0.29098E-08 10672   0.182E-03    0.185E-04
DAV:  14    -0.411997619507E+02   -0.20231E-07   -0.31261E-09  7280   0.559E-04    0.656E-05
DAV:  15    -0.411997619554E+02   -0.46748E-08   -0.72743E-10  7144   0.228E-04
   8 F= -.41199762E+02 E0= -.41199599E+02  d E =-.284395E-01  mag=    -0.0000
       N       E                     dE             d eps       ncg     rms          rms(c)
DAV:   1    -0.412956406111E+02   -0.95879E-01   -0.73466E+00 15512   0.763E+01    0.651E+00
DAV:   2    -0.424235090376E+02   -0.11279E+01   -0.95973E+00 14880   0.310E+01    0.101E+01
DAV:   3    -0.412276762145E+02    0.11958E+01   -0.37844E+00 14696   0.212E+01    0.165E+00
DAV:   4    -0.412331690692E+02   -0.54929E-02   -0.21840E-01 17208   0.682E+00    0.168E+00
DAV:   5    -0.412108884076E+02    0.22281E-01   -0.58434E-02 16584   0.360E+00    0.451E-01
DAV:   6    -0.412133757919E+02   -0.24874E-02   -0.24338E-02 17880   0.245E+00    0.792E-01
DAV:   7    -0.412094581327E+02    0.39177E-02   -0.13557E-02 14912   0.204E+00    0.100E-01
DAV:   8    -0.412094733758E+02   -0.15243E-04   -0.16455E-03 17872   0.446E-01    0.111E-01
DAV:   9    -0.412094528257E+02    0.20550E-04   -0.51691E-04 14992   0.421E-01    0.855E-02
DAV:  10    -0.412094044113E+02    0.48414E-04   -0.12247E-04 15376   0.193E-01    0.139E-02
DAV:  11    -0.412094034417E+02    0.96963E-06   -0.25388E-05 15144   0.424E-02    0.860E-03
DAV:  12    -0.412094024897E+02    0.95201E-06   -0.31847E-06 14880   0.228E-02    0.190E-03
DAV:  13    -0.412094023249E+02    0.16480E-06   -0.34277E-07 14752   0.755E-03    0.719E-04
DAV:  14    -0.412094022759E+02    0.49002E-07   -0.20628E-08  7884   0.219E-03    0.163E-04
DAV:  15    -0.412094022479E+02    0.27945E-07   -0.57276E-09  7448   0.642E-04    0.103E-04
DAV:  16    -0.412094022468E+02    0.11296E-08   -0.13486E-09  7192   0.346E-04
   9 F= -.41209402E+02 E0= -.41209317E+02  d E =-.964029E-02  mag=    -0.0000
       N       E                     dE             d eps       ncg     rms          rms(c)
DAV:   1    -0.412094366476E+02   -0.34400E-04   -0.26168E-03 15176   0.142E+00    0.121E-01
DAV:   2    -0.412098432021E+02   -0.40655E-03   -0.35853E-03 14888   0.578E-01    0.203E-01
DAV:   3    -0.412094179498E+02    0.42525E-03   -0.14638E-03 14688   0.416E-01    0.476E-02
DAV:   4    -0.412094124680E+02    0.54818E-05   -0.11234E-04 16624   0.164E-01    0.285E-02
DAV:   5    -0.412094059480E+02    0.65200E-05   -0.16360E-05 16656   0.588E-02    0.940E-03
DAV:   6    -0.412094085553E+02   -0.26073E-05   -0.14764E-05 16288   0.703E-02    0.215E-02
DAV:   7    -0.412094056895E+02    0.28658E-05   -0.85717E-06 15112   0.576E-02    0.159E-03
DAV:   8    -0.412094058348E+02   -0.14525E-06   -0.84488E-07 18192   0.107E-02    0.307E-03
DAV:   9    -0.412094058183E+02    0.16471E-07   -0.25836E-07 14920   0.966E-03    0.116E-03
DAV:  10    -0.412094058365E+02   -0.18154E-07   -0.31925E-08  9072   0.238E-03    0.284E-04
DAV:  11    -0.412094058595E+02   -0.23054E-07   -0.82356E-09  6888   0.989E-04    0.191E-04
DAV:  12    -0.412094058644E+02   -0.49204E-08   -0.20957E-09  6752   0.604E-04
  10 F= -.41209406E+02 E0= -.41209319E+02  d E =-.964391E-02  mag=    -0.0000
       N       E                     dE             d eps       ncg     rms          rms(c)
DAV:   1    -0.411750189902E+02    0.34387E-01   -0.15912E+00 15304   0.387E+01    0.217E+00
DAV:   2    -0.413385341138E+02   -0.16352E+00   -0.15604E+00 14904   0.111E+01    0.343E+00
DAV:   3    -0.412197469354E+02    0.11879E+00   -0.44775E-01 14688   0.758E+00    0.108E+00
DAV:   4    -0.412162566592E+02    0.34903E-02   -0.49644E-02 15032   0.355E+00    0.638E-01
DAV:   5    -0.412126620751E+02    0.35946E-02   -0.73882E-03 15008   0.128E+00    0.218E-01
DAV:   6    -0.412140276522E+02   -0.13656E-02   -0.83942E-03 16424   0.157E+00    0.535E-01
DAV:   7    -0.412122003535E+02    0.18273E-02   -0.55368E-03 14896   0.137E+00    0.404E-02
DAV:   8    -0.412122205721E+02   -0.20219E-04   -0.47372E-04 15352   0.178E-01    0.370E-02
DAV:   9    -0.412122216931E+02   -0.11210E-05   -0.55799E-05 15336   0.134E-01    0.342E-02
DAV:  10    -0.412122151635E+02    0.65296E-05   -0.21566E-05 15152   0.790E-02    0.817E-03
DAV:  11    -0.412122157728E+02   -0.60929E-06   -0.46203E-06 15808   0.203E-02    0.413E-03
DAV:  12    -0.412122158443E+02   -0.71479E-07   -0.63584E-07 14600   0.119E-02    0.694E-04
DAV:  13    -0.412122158789E+02   -0.34681E-07   -0.46450E-08 12120   0.241E-03    0.224E-04
DAV:  14    -0.412122158963E+02   -0.17310E-07   -0.46230E-09  7352   0.850E-04    0.111E-04
DAV:  15    -0.412122159041E+02   -0.78489E-08   -0.13166E-09  7200   0.378E-04
  11 F= -.41212216E+02 E0= -.41212148E+02  d E =-.281004E-02  mag=     0.0000
       N       E                     dE             d eps       ncg     rms          rms(c)
DAV:   1    -0.412108712579E+02    0.13446E-02   -0.62308E-02 15432   0.769E+00    0.434E-01
DAV:   2    -0.412174743152E+02   -0.66031E-02   -0.61149E-02 14872   0.222E+00    0.695E-01
DAV:   3    -0.412125900770E+02    0.48842E-02   -0.18404E-02 14704   0.155E+00    0.210E-01
DAV:   4    -0.412124651306E+02    0.12495E-03   -0.19739E-03 15120   0.737E-01    0.127E-01
DAV:   5    -0.412123255220E+02    0.13961E-03   -0.29816E-04 15040   0.265E-01    0.453E-02
DAV:   6    -0.412123850623E+02   -0.59540E-04   -0.36372E-04 16296   0.338E-01    0.110E-01
DAV:   7    -0.412123078388E+02    0.77224E-04   -0.22839E-04 15008   0.292E-01    0.835E-03
DAV:   8    -0.412123091752E+02   -0.13365E-05   -0.20350E-05 16832   0.399E-02    0.996E-03
DAV:   9    -0.412123089223E+02    0.25296E-06   -0.33048E-06 14928   0.337E-02    0.578E-03
DAV:  10    -0.412123088173E+02    0.10499E-06   -0.64725E-07 16472   0.125E-02    0.179E-03
DAV:  11    -0.412123089231E+02   -0.10584E-06   -0.15055E-07 15008   0.412E-03    0.765E-04
DAV:  12    -0.412123089557E+02   -0.32562E-07   -0.17607E-08  7320   0.218E-03    0.145E-04
DAV:  13    -0.412123089639E+02   -0.81873E-08   -0.31214E-09  7116   0.547E-04
  12 F= -.41212309E+02 E0= -.41212247E+02  d E =-.290310E-02  mag=    -0.0000
       N       E                     dE             d eps       ncg     rms          rms(c)
DAV:   1    -0.411901039654E+02    0.22205E-01   -0.59949E-01 19512   0.248E+01    0.738E-01
DAV:   2    -0.412249658222E+02   -0.34862E-01   -0.34535E-01 14768   0.460E+00    0.104E+00
DAV:   3    -0.412143386260E+02    0.10627E-01   -0.48709E-02 15632   0.256E+00    0.335E-01
DAV:   4    -0.412142652579E+02    0.73368E-04   -0.62151E-03 15232   0.136E+00    0.317E-01
DAV:   5    -0.412134702291E+02    0.79503E-03   -0.17122E-03 14928   0.821E-01    0.890E-02
DAV:   6    -0.412134626144E+02    0.76146E-05   -0.69518E-04 19384   0.371E-01    0.113E-01
DAV:   7    -0.412133875589E+02    0.75056E-04   -0.31818E-04 14944   0.339E-01    0.231E-02
DAV:   8    -0.412133865845E+02    0.97437E-06   -0.53271E-05 17208   0.859E-02    0.207E-02
DAV:   9    -0.412133854285E+02    0.11560E-05   -0.16355E-05 15104   0.714E-02    0.137E-02
DAV:  10    -0.412133842367E+02    0.11918E-05   -0.35692E-06 15320   0.304E-02    0.295E-03
DAV:  11    -0.412133841518E+02    0.84958E-07   -0.58682E-07 14896   0.647E-03    0.113E-03
DAV:  12    -0.412133841049E+02    0.46846E-07   -0.61391E-08 12888   0.318E-03    0.255E-04
DAV:  13    -0.412133840929E+02    0.12004E-07   -0.54597E-09  7328   0.100E-03    0.878E-05
DAV:  14    -0.412133840888E+02    0.41491E-08   -0.95085E-10  7120   0.365E-04
  13 F= -.41213384E+02 E0= -.41213366E+02  d E =-.107512E-02  mag=     0.0000
       N       E                     dE             d eps       ncg     rms          rms(c)
DAV:   1    -0.411957786439E+02    0.17605E-01   -0.45637E-01 19384   0.217E+01    0.642E-01
DAV:   2    -0.412223452069E+02   -0.26567E-01   -0.26353E-01 14768   0.401E+00    0.900E-01
DAV:   3    -0.412144036338E+02    0.79416E-02   -0.36887E-02 15576   0.224E+00    0.297E-01
DAV:   4    -0.412143304257E+02    0.73208E-04   -0.48010E-03 15176   0.120E+00    0.275E-01
DAV:   5    -0.412137269675E+02    0.60346E-03   -0.12902E-03 14952   0.714E-01    0.782E-02
DAV:   6    -0.412137191403E+02    0.78272E-05   -0.53265E-04 19360   0.323E-01    0.980E-02
DAV:   7    -0.412136623417E+02    0.56799E-04   -0.24208E-04 14952   0.295E-01    0.202E-02
DAV:   8    -0.412136614870E+02    0.85463E-06   -0.41223E-05 17256   0.753E-02    0.181E-02
DAV:   9    -0.412136606399E+02    0.84712E-06   -0.12676E-05 15048   0.632E-02    0.123E-02
DAV:  10    -0.412136596574E+02    0.98255E-06   -0.28504E-06 15336   0.273E-02    0.260E-03
DAV:  11    -0.412136595771E+02    0.80296E-07   -0.46516E-07 14920   0.576E-03    0.991E-04
DAV:  12    -0.412136595375E+02    0.39605E-07   -0.47450E-08 12824   0.279E-03    0.223E-04
DAV:  13    -0.412136595264E+02    0.11061E-07   -0.42439E-09  7288   0.868E-04    0.759E-05
DAV:  14    -0.412136595225E+02    0.39036E-08   -0.74078E-10  7088   0.320E-04
  14 F= -.41213660E+02 E0= -.41213677E+02  d E =-.135056E-02  mag=    -0.0000
       N       E                     dE             d eps       ncg     rms          rms(c)
DAV:   1    -0.411928612298E+02    0.20798E-01   -0.76588E-01 14712   0.283E+01    0.148E+00
DAV:   2    -0.412739660305E+02   -0.81105E-01   -0.74903E-01 14880   0.762E+00    0.235E+00
DAV:   3    -0.412161149047E+02    0.57851E-01   -0.21022E-01 14672   0.488E+00    0.568E-01
DAV:   4    -0.412154018093E+02    0.71310E-03   -0.14349E-02 16392   0.181E+00    0.399E-01
DAV:   5    -0.412143216982E+02    0.10801E-02   -0.23010E-03 14928   0.761E-01    0.178E-01
DAV:   6    -0.412146205114E+02   -0.29881E-03   -0.27743E-03 16208   0.855E-01    0.302E-01
DAV:   7    -0.412140540642E+02    0.56645E-03   -0.17938E-03 14984   0.770E-01    0.331E-02
DAV:   8    -0.412140609653E+02   -0.69011E-05   -0.18913E-04 17736   0.142E-01    0.388E-02
DAV:   9    -0.412140560813E+02    0.48841E-05   -0.51320E-05 14952   0.132E-01    0.229E-02
DAV:  10    -0.412140529261E+02    0.31552E-05   -0.97075E-06 17264   0.472E-02    0.506E-03
DAV:  11    -0.412140532182E+02   -0.29213E-06   -0.22304E-06 15080   0.149E-02    0.302E-03
DAV:  12    -0.412140532403E+02   -0.22063E-07   -0.33816E-07 14376   0.774E-03    0.495E-04
DAV:  13    -0.412140532775E+02   -0.37215E-07   -0.29772E-08 10544   0.203E-03    0.232E-04
DAV:  14    -0.412140532958E+02   -0.18266E-07   -0.30418E-09  7240   0.690E-04    0.709E-05
DAV:  15    -0.412140533015E+02   -0.57753E-08   -0.76200E-10  7104   0.257E-04
  15 F= -.41214053E+02 E0= -.41214110E+02  d E =-.393779E-03  mag=     0.0000
       N       E                     dE             d eps       ncg     rms          rms(c)
DAV:   1    -0.412134438476E+02    0.60945E-03   -0.22821E-02 14840   0.490E+00    0.258E-01
DAV:   2    -0.412159292408E+02   -0.24854E-02   -0.22268E-02 14856   0.133E+00    0.410E-01
DAV:   3    -0.412141287218E+02    0.18005E-02   -0.64230E-03 14672   0.850E-01    0.898E-02
DAV:   4    -0.412141138692E+02    0.14853E-04   -0.37306E-04 16840   0.304E-01    0.684E-02
DAV:   5    -0.412140818853E+02    0.31984E-04   -0.71464E-05 14896   0.140E-01    0.306E-02
DAV:   6    -0.412140875202E+02   -0.56348E-05   -0.78352E-05 16320   0.143E-01    0.497E-02
DAV:   7    -0.412140718691E+02    0.15651E-04   -0.50618E-05 14936   0.126E-01    0.560E-03
DAV:   8    -0.412140717646E+02    0.10457E-06   -0.51603E-06 17136   0.222E-02    0.586E-03
DAV:   9    -0.412140716494E+02    0.11512E-06   -0.14028E-06 14968   0.218E-02    0.439E-03
DAV:  10    -0.412140714542E+02    0.19527E-06   -0.32228E-07 15840   0.949E-03    0.893E-04
DAV:  11    -0.412140714028E+02    0.51376E-07   -0.75957E-08 11656   0.254E-03    0.566E-04
DAV:  12    -0.412140713885E+02    0.14286E-07   -0.11611E-08  7088   0.139E-03    0.907E-05
DAV:  13    -0.412140713809E+02    0.76107E-08   -0.19298E-09  6904   0.371E-04
  16 F= -.41214071E+02 E0= -.41214122E+02  d E =-.411858E-03  mag=    -0.0000
       N       E                     dE             d eps       ncg     rms          rms(c)
DAV:   1    -0.412040465264E+02    0.10025E-01   -0.24932E-01 15584   0.166E+01    0.668E-01
DAV:   2    -0.412250305146E+02   -0.20984E-01   -0.19904E-01 14816   0.375E+00    0.985E-01
DAV:   3    -0.412151058687E+02    0.99246E-02   -0.41793E-02 14672   0.238E+00    0.342E-01
DAV:   4    -0.412147967203E+02    0.30915E-03   -0.51833E-03 15112   0.119E+00    0.223E-01
DAV:   5    -0.412144013661E+02    0.39535E-03   -0.82963E-04 15336   0.454E-01    0.874E-02
DAV:   6    -0.412145092702E+02   -0.10790E-03   -0.88804E-04 17184   0.514E-01    0.171E-01
DAV:   7    -0.412143203049E+02    0.18897E-03   -0.57825E-04 15088   0.441E-01    0.177E-02
DAV:   8    -0.412143222709E+02   -0.19660E-05   -0.63748E-05 18088   0.789E-02    0.196E-02
DAV:   9    -0.412143211015E+02    0.11695E-05   -0.14276E-05 14920   0.700E-02    0.125E-02
DAV:  10    -0.412143200325E+02    0.10689E-05   -0.26581E-06 17000   0.254E-02    0.338E-03
DAV:  11    -0.412143198611E+02    0.17139E-06   -0.58703E-07 15120   0.754E-03    0.127E-03
DAV:  12    -0.412143198060E+02    0.55144E-07   -0.78629E-08 12944   0.443E-03    0.325E-04
DAV:  13    -0.412143197890E+02    0.16991E-07   -0.67785E-09  7292   0.134E-03    0.117E-04
DAV:  14    -0.412143197834E+02    0.55970E-08   -0.14621E-09  7056   0.445E-04
  17 F= -.41214320E+02 E0= -.41214388E+02  d E =-.248403E-03  mag=    -0.0000
       N       E                     dE             d eps       ncg     rms          rms(c)
DAV:   1    -0.412139400211E+02    0.37977E-03   -0.93579E-03 15392   0.321E+00    0.129E-01
DAV:   2    -0.412147284254E+02   -0.78840E-03   -0.74758E-03 14824   0.726E-01    0.191E-01
DAV:   3    -0.412143597147E+02    0.36871E-03   -0.15581E-03 14672   0.463E-01    0.675E-02
DAV:   4    -0.412143469453E+02    0.12769E-04   -0.19711E-04 15144   0.234E-01    0.433E-02
DAV:   5    -0.412143317230E+02    0.15222E-04   -0.31086E-05 15200   0.881E-02    0.170E-02
DAV:   6    -0.412143350455E+02   -0.33225E-05   -0.32923E-05 17144   0.978E-02    0.328E-02
DAV:   7    -0.412143280241E+02    0.70214E-05   -0.21139E-05 15104   0.876E-02    0.347E-03
DAV:   8    -0.412143280434E+02   -0.19279E-07   -0.23928E-06 18144   0.155E-02    0.394E-03
DAV:   9    -0.412143279813E+02    0.62129E-07   -0.55741E-07 14928   0.138E-02    0.251E-03
DAV:  10    -0.412143279207E+02    0.60576E-07   -0.10180E-07 14328   0.490E-03    0.682E-04
DAV:  11    -0.412143278913E+02    0.29329E-07   -0.24495E-08  8648   0.151E-03    0.255E-04
DAV:  12    -0.412143278841E+02    0.72923E-08   -0.45581E-09  6960   0.940E-04
  18 F= -.41214328E+02 E0= -.41214399E+02  d E =-.256503E-03  mag=     0.0000
       N       E                     dE             d eps       ncg     rms          rms(c)
DAV:   1    -0.412116691706E+02    0.26587E-02   -0.80143E-02 15600   0.907E+00    0.415E-01
DAV:   2    -0.412186849089E+02   -0.70157E-02   -0.67227E-02 14816   0.223E+00    0.624E-01
DAV:   3    -0.412146500697E+02    0.40348E-02   -0.15547E-02 14688   0.138E+00    0.178E-01
DAV:   4    -0.412145965918E+02    0.53478E-04   -0.14832E-03 15264   0.654E-01    0.143E-01
DAV:   5    -0.412144287489E+02    0.16784E-03   -0.34430E-04 14896   0.337E-01    0.442E-02
DAV:   6    -0.412144314383E+02   -0.26894E-05   -0.17868E-04 16816   0.182E-01    0.567E-02
DAV:   7    -0.412144126035E+02    0.18835E-04   -0.80838E-05 14944   0.164E-01    0.102E-02
DAV:   8    -0.412144125163E+02    0.87224E-07   -0.14065E-05 15344   0.433E-02    0.116E-02
DAV:   9    -0.412144123589E+02    0.15740E-06   -0.46408E-06 14976   0.376E-02    0.885E-03
DAV:  10    -0.412144118994E+02    0.45950E-06   -0.13911E-06 15016   0.165E-02    0.174E-03
DAV:  11    -0.412144120109E+02   -0.11153E-06   -0.26194E-07 15240   0.441E-03    0.758E-04
DAV:  12    -0.412144120328E+02   -0.21912E-07   -0.26591E-08  8648   0.201E-03    0.151E-04
DAV:  13    -0.412144120425E+02   -0.96516E-08   -0.33291E-09  7048   0.661E-04
  19 F= -.41214412E+02 E0= -.41214487E+02  d E =-.841584E-04  mag=     0.0000
       N       E                     dE             d eps       ncg     rms          rms(c)
DAV:   1    -0.412144112735E+02    0.75934E-06   -0.24242E-05 15632   0.158E-01    0.724E-03
DAV:   2    -0.412144131168E+02   -0.18433E-05   -0.20348E-05 14816   0.389E-02    0.109E-02
DAV:   3    -0.412144120466E+02    0.10701E-05   -0.47385E-06 14712   0.241E-02    0.305E-03
DAV:   4    -0.412144120467E+02   -0.10550E-09   -0.44441E-07 15288   0.115E-02    0.250E-03
DAV:   5    -0.412144120183E+02    0.28460E-07   -0.10486E-07 14016   0.604E-03    0.769E-04
DAV:   6    -0.412144120549E+02   -0.36636E-07   -0.50978E-08 10296   0.302E-03    0.928E-04
DAV:   7    -0.412144120526E+02    0.23119E-08   -0.22238E-08  6784   0.276E-03
  20 F= -.41214412E+02 E0= -.41214487E+02  d E =-.841686E-04  mag=    -0.0000
       N       E                     dE             d eps       ncg     rms          rms(c)
DAV:   1    -0.412141001705E+02    0.31188E-03   -0.26561E-02 15216   0.482E+00    0.313E-01
DAV:   2    -0.412171575639E+02   -0.30574E-02   -0.27729E-02 14864   0.155E+00    0.496E-01
DAV:   3    -0.412145260180E+02    0.26315E-02   -0.91152E-03 14688   0.102E+00    0.108E-01
DAV:   4    -0.412145187649E+02    0.72531E-05   -0.64366E-04 17072   0.412E-01    0.964E-02
DAV:   5    -0.412144418190E+02    0.76946E-04   -0.18051E-04 15480   0.235E-01    0.240E-02
DAV:   6    -0.412144533708E+02   -0.11552E-04   -0.97361E-05 17272   0.160E-01    0.526E-02
DAV:   7    -0.412144359102E+02    0.17461E-04   -0.56709E-05 14912   0.136E-01    0.536E-03
DAV:   8    -0.412144358339E+02    0.76310E-07   -0.59038E-06 15752   0.217E-02    0.474E-03
DAV:   9    -0.412144357417E+02    0.92137E-07   -0.82399E-07 16080   0.159E-02    0.408E-03
DAV:  10    -0.412144356090E+02    0.13274E-06   -0.38107E-07 14920   0.119E-02    0.873E-04
DAV:  11    -0.412144355438E+02    0.65203E-07   -0.59881E-08 11600   0.209E-03    0.441E-04
DAV:  12    -0.412144355234E+02    0.20349E-07   -0.75556E-09  7128   0.111E-03    0.990E-05
DAV:  13    -0.412144355182E+02    0.51914E-08   -0.17035E-09  6976   0.440E-04
  21 F= -.41214436E+02 E0= -.41214523E+02  d E =-.234656E-04  mag=    -0.0000
       N       E                     dE             d eps       ncg     rms          rms(c)
DAV:   1    -0.412144347463E+02    0.77712E-06   -0.72303E-05 15216   0.251E-01    0.163E-02
DAV:   2    -0.412144423466E+02   -0.76002E-05   -0.75418E-05 14864   0.808E-02    0.259E-02
DAV:   3    -0.412144356324E+02    0.67142E-05   -0.24733E-05 14680   0.530E-02    0.568E-03
DAV:   4    -0.412144356367E+02   -0.43074E-08   -0.17495E-06 17104   0.218E-02    0.502E-03
DAV:   5    -0.412144354892E+02    0.14747E-06   -0.48978E-07 15456   0.120E-02    0.124E-03
DAV:   6    -0.412144355744E+02   -0.85221E-07   -0.25106E-07 17320   0.801E-03    0.266E-03
DAV:   7    -0.412144355379E+02    0.36540E-07   -0.14620E-07 12960   0.707E-03    0.276E-04
DAV:   8    -0.412144355476E+02   -0.96916E-08   -0.13276E-08  6944   0.113E-03
  22 F= -.41214436E+02 E0= -.41214522E+02  d E =-.234950E-04  mag=    -0.0000
       N       E                     dE             d eps       ncg     rms          rms(c)
DAV:   1    -0.412138047197E+02    0.63082E-03   -0.21215E-02 15488   0.440E+00    0.211E-01
DAV:   2    -0.412154619306E+02   -0.16572E-02   -0.16547E-02 14824   0.113E+00    0.302E-01
DAV:   3    -0.412145187093E+02    0.94322E-03   -0.35926E-03 14704   0.641E-01    0.828E-02
DAV:   4    -0.412145285038E+02   -0.97945E-05   -0.43583E-04 15768   0.379E-01    0.102E-01
DAV:   5    -0.412144532145E+02    0.75289E-04   -0.23312E-04 15032   0.279E-01    0.194E-02
DAV:   6    -0.412144553079E+02   -0.20934E-05   -0.47668E-05 18560   0.853E-02    0.256E-02
DAV:   7    -0.412144515583E+02    0.37495E-05   -0.16553E-05 14960   0.737E-02    0.513E-03
DAV:   8    -0.412144515485E+02    0.98244E-08   -0.35005E-06 15088   0.205E-02    0.477E-03
DAV:   9    -0.412144515433E+02    0.52478E-08   -0.85483E-07 15056   0.162E-02    0.420E-03
DAV:  10    -0.412144514649E+02    0.78413E-07   -0.45450E-07 15008   0.122E-02    0.951E-04
DAV:  11    -0.412144515172E+02   -0.52389E-07   -0.55089E-08 11200   0.235E-03    0.452E-04
DAV:  12    -0.412144515324E+02   -0.15132E-07   -0.91455E-09  7160   0.112E-03    0.110E-04
DAV:  13    -0.412144515403E+02   -0.79290E-08   -0.18764E-09  7000   0.425E-04
  23 F= -.41214452E+02 E0= -.41214555E+02  d E =-.159927E-04  mag=    -0.0000
       N       E                     dE             d eps       ncg     rms          rms(c)
DAV:   1    -0.412144506117E+02    0.92067E-06   -0.30015E-05 15472   0.166E-01    0.794E-03
DAV:   2    -0.412144532562E+02   -0.26445E-05   -0.23376E-05 14840   0.423E-02    0.113E-02
DAV:   3    -0.412144517438E+02    0.15124E-05   -0.50778E-06 14696   0.242E-02    0.312E-03
DAV:   4    -0.412144517375E+02    0.62482E-08   -0.62001E-07 15768   0.140E-02    0.383E-03
DAV:   5    -0.412144516096E+02    0.12800E-06   -0.32566E-07 15040   0.108E-02    0.726E-04
DAV:   6    -0.412144515886E+02    0.20964E-07   -0.67529E-08 11652   0.330E-03    0.100E-03
DAV:   7    -0.412144515823E+02    0.63174E-08   -0.24851E-08  6760   0.292E-03
  24 F= -.41214452E+02 E0= -.41214555E+02  d E =-.160347E-04  mag=     0.0000
       N       E                     dE             d eps       ncg     rms          rms(c)
DAV:   1    -0.412143873852E+02    0.64203E-04   -0.21525E-03 16024   0.131E+00    0.514E-02
DAV:   2    -0.412144895779E+02   -0.10219E-03   -0.11954E-03 14688   0.290E-01    0.550E-02
DAV:   3    -0.412144720036E+02    0.17574E-04   -0.16862E-04 14944   0.198E-01    0.404E-02
DAV:   4    -0.412144673543E+02    0.46493E-05   -0.77695E-05 14976   0.156E-01    0.304E-02
DAV:   5    -0.412144583822E+02    0.89721E-05   -0.21682E-05 17432   0.751E-02    0.499E-03
DAV:   6    -0.412144596332E+02   -0.12510E-05   -0.81123E-06 17832   0.498E-02    0.146E-02
DAV:   7    -0.412144582072E+02    0.14260E-05   -0.42303E-06 15104   0.406E-02    0.125E-03
DAV:   8    -0.412144582129E+02   -0.57098E-08   -0.39660E-07 14304   0.464E-03    0.987E-04
DAV:   9    -0.412144582121E+02    0.84583E-09   -0.43043E-08  9416   0.386E-03
  25 F= -.41214458E+02 E0= -.41214566E+02  d E =-.662981E-05  mag=    -0.0000
       N       E                     dE             d eps       ncg     rms          rms(c)
DAV:   1    -0.412144464999E+02    0.11713E-04   -0.53425E-04 16064   0.654E-01    0.256E-02
DAV:   2    -0.412144720895E+02   -0.25590E-04   -0.29628E-04 14688   0.145E-01    0.274E-02
DAV:   3    -0.412144675546E+02    0.45350E-05   -0.41844E-05 14952   0.994E-02    0.201E-02
DAV:   4    -0.412144663472E+02    0.12074E-05   -0.19179E-05 14960   0.772E-02    0.151E-02
DAV:   5    -0.412144641551E+02    0.21921E-05   -0.53728E-06 17528   0.375E-02    0.272E-03
DAV:   6    -0.412144644860E+02   -0.33090E-06   -0.22524E-06 17648   0.266E-02    0.770E-03
DAV:   7    -0.412144640814E+02    0.40460E-06   -0.11682E-06 15064   0.213E-02    0.634E-04
DAV:   8    -0.412144640762E+02    0.52405E-08   -0.10734E-07 13448   0.241E-03    0.525E-04
DAV:   9    -0.412144640767E+02   -0.45839E-09   -0.11076E-08  7112   0.198E-03
  26 F= -.41214464E+02 E0= -.41214574E+02  d E =-.124944E-04  mag=    -0.0000
