   8   8   0   0
  0.1254864E+02  0.5317423E-09  0.5317423E-09  0.3550457E-09  0.5000000E-15
  1.000000000000000E-004
  CAR 
 unknown system                          
     24.23639352    -58.51999190  301      8.67981428      1.00000000
    -58.520  0.0000E+00  0.0000E+00  0.0000E+00  0.0000E+00
    -58.244  0.0000E+00  0.0000E+00  0.0000E+00  0.0000E+00
    -57.968  0.0000E+00  0.0000E+00  0.0000E+00  0.0000E+00
    -57.692  0.0000E+00  0.0000E+00  0.0000E+00  0.0000E+00
    -57.417  0.0000E+00  0.0000E+00  0.0000E+00  0.0000E+00
    -57.141  0.0000E+00  0.0000E+00  0.0000E+00  0.0000E+00
    -56.865  0.0000E+00  0.0000E+00  0.0000E+00  0.0000E+00
    -56.589  0.0000E+00  0.0000E+00  0.0000E+00  0.0000E+00
    -56.313  0.0000E+00  0.0000E+00  0.0000E+00  0.0000E+00
    -56.037  0.0000E+00  0.0000E+00  0.0000E+00  0.0000E+00
    -55.761  0.0000E+00  0.0000E+00  0.0000E+00  0.0000E+00
    -55.486  0.0000E+00  0.0000E+00  0.0000E+00  0.0000E+00
    -55.210  0.0000E+00  0.0000E+00  0.0000E+00  0.0000E+00
    -54.934  0.0000E+00  0.0000E+00  0.0000E+00  0.0000E+00
    -54.658  0.2596E+03  0.2596E+03  0.8578E+01  0.8578E+01
    -54.382  0.0000E+00  0.0000E+00  0.1200E+02  0.1200E+02
    -54.106  0.0000E+00  0.0000E+00  0.1200E+02  0.1200E+02
    -53.830  0.0000E+00  0.0000E+00  0.1200E+02  0.1200E+02
    -53.555  0.0000E+00  0.0000E+00  0.1200E+02  0.1200E+02
    -53.279  0.0000E+00  0.0000E+00  0.1200E+02  0.1200E+02
    -53.003  0.0000E+00  0.0000E+00  0.1200E+02  0.1200E+02
    -52.727  0.0000E+00  0.0000E+00  0.1200E+02  0.1200E+02
    -52.451  0.0000E+00  0.0000E+00  0.1200E+02  0.1200E+02
    -52.175  0.0000E+00  0.0000E+00  0.1200E+02  0.1200E+02
    -51.899  0.0000E+00  0.0000E+00  0.1200E+02  0.1200E+02
    -51.624  0.0000E+00  0.0000E+00  0.1200E+02  0.1200E+02
    -51.348  0.0000E+00  0.0000E+00  0.1200E+02  0.1200E+02
    -51.072  0.0000E+00  0.0000E+00  0.1200E+02  0.1200E+02
    -50.796  0.0000E+00  0.0000E+00  0.1200E+02  0.1200E+02
    -50.520  0.0000E+00  0.0000E+00  0.1200E+02  0.1200E+02
    -50.244  0.0000E+00  0.0000E+00  0.1200E+02  0.1200E+02
    -49.968  0.0000E+00  0.0000E+00  0.1200E+02  0.1200E+02
    -49.693  0.0000E+00  0.0000E+00  0.1200E+02  0.1200E+02
    -49.417  0.0000E+00  0.0000E+00  0.1200E+02  0.1200E+02
    -49.141  0.0000E+00  0.0000E+00  0.1200E+02  0.1200E+02
    -48.865  0.0000E+00  0.0000E+00  0.1200E+02  0.1200E+02
    -48.589  0.0000E+00  0.0000E+00  0.1200E+02  0.1200E+02
    -48.313  0.0000E+00  0.0000E+00  0.1200E+02  0.1200E+02
    -48.038  0.0000E+00  0.0000E+00  0.1200E+02  0.1200E+02
    -47.762  0.0000E+00  0.0000E+00  0.1200E+02  0.1200E+02
    -47.486  0.0000E+00  0.0000E+00  0.1200E+02  0.1200E+02
    -47.210  0.0000E+00  0.0000E+00  0.1200E+02  0.1200E+02
    -46.934  0.0000E+00  0.0000E+00  0.1200E+02  0.1200E+02
    -46.658  0.0000E+00  0.0000E+00  0.1200E+02  0.1200E+02
    -46.382  0.0000E+00  0.0000E+00  0.1200E+02  0.1200E+02
    -46.107  0.0000E+00  0.0000E+00  0.1200E+02  0.1200E+02
    -45.831  0.0000E+00  0.0000E+00  0.1200E+02  0.1200E+02
    -45.555  0.0000E+00  0.0000E+00  0.1200E+02  0.1200E+02
    -45.279  0.0000E+00  0.0000E+00  0.1200E+02  0.1200E+02
    -45.003  0.0000E+00  0.0000E+00  0.1200E+02  0.1200E+02
    -44.727  0.0000E+00  0.0000E+00  0.1200E+02  0.1200E+02
    -44.451  0.0000E+00  0.0000E+00  0.1200E+02  0.1200E+02
    -44.176  0.0000E+00  0.0000E+00  0.1200E+02  0.1200E+02
    -43.900  0.0000E+00  0.0000E+00  0.1200E+02  0.1200E+02
    -43.624  0.0000E+00  0.0000E+00  0.1200E+02  0.1200E+02
    -43.348  0.0000E+00  0.0000E+00  0.1200E+02  0.1200E+02
    -43.072  0.0000E+00  0.0000E+00  0.1200E+02  0.1200E+02
    -42.796  0.0000E+00  0.0000E+00  0.1200E+02  0.1200E+02
    -42.520  0.0000E+00  0.0000E+00  0.1200E+02  0.1200E+02
    -42.245  0.0000E+00  0.0000E+00  0.1200E+02  0.1200E+02
    -41.969  0.0000E+00  0.0000E+00  0.1200E+02  0.1200E+02
    -41.693  0.0000E+00  0.0000E+00  0.1200E+02  0.1200E+02
    -41.417  0.0000E+00  0.0000E+00  0.1200E+02  0.1200E+02
    -41.141  0.0000E+00  0.0000E+00  0.1200E+02  0.1200E+02
    -40.865  0.0000E+00  0.0000E+00  0.1200E+02  0.1200E+02
    -40.589  0.0000E+00  0.0000E+00  0.1200E+02  0.1200E+02
    -40.314  0.0000E+00  0.0000E+00  0.1200E+02  0.1200E+02
    -40.038  0.0000E+00  0.0000E+00  0.1200E+02  0.1200E+02
    -39.762  0.0000E+00  0.0000E+00  0.1200E+02  0.1200E+02
    -39.486  0.0000E+00  0.0000E+00  0.1200E+02  0.1200E+02
    -39.210  0.0000E+00  0.0000E+00  0.1200E+02  0.1200E+02
    -38.934  0.0000E+00  0.0000E+00  0.1200E+02  0.1200E+02
    -38.658  0.0000E+00  0.0000E+00  0.1200E+02  0.1200E+02
    -38.383  0.0000E+00  0.0000E+00  0.1200E+02  0.1200E+02
    -38.107  0.0000E+00  0.0000E+00  0.1200E+02  0.1200E+02
    -37.831  0.0000E+00  0.0000E+00  0.1200E+02  0.1200E+02
    -37.555  0.0000E+00  0.0000E+00  0.1200E+02  0.1200E+02
    -37.279  0.0000E+00  0.0000E+00  0.1200E+02  0.1200E+02
    -37.003  0.0000E+00  0.0000E+00  0.1200E+02  0.1200E+02
    -36.727  0.0000E+00  0.0000E+00  0.1200E+02  0.1200E+02
    -36.452  0.0000E+00  0.0000E+00  0.1200E+02  0.1200E+02
    -36.176  0.0000E+00  0.0000E+00  0.1200E+02  0.1200E+02
    -35.900  0.0000E+00  0.0000E+00  0.1200E+02  0.1200E+02
    -35.624  0.0000E+00  0.0000E+00  0.1200E+02  0.1200E+02
    -35.348  0.0000E+00  0.0000E+00  0.1200E+02  0.1200E+02
    -35.072  0.0000E+00  0.0000E+00  0.1200E+02  0.1200E+02
    -34.796  0.0000E+00  0.0000E+00  0.1200E+02  0.1200E+02
    -34.521  0.0000E+00  0.0000E+00  0.1200E+02  0.1200E+02
    -34.245  0.0000E+00  0.0000E+00  0.1200E+02  0.1200E+02
    -33.969  0.0000E+00  0.0000E+00  0.1200E+02  0.1200E+02
    -33.693  0.0000E+00  0.0000E+00  0.1200E+02  0.1200E+02
    -33.417  0.0000E+00  0.0000E+00  0.1200E+02  0.1200E+02
    -33.141  0.0000E+00  0.0000E+00  0.1200E+02  0.1200E+02
    -32.866  0.0000E+00  0.0000E+00  0.1200E+02  0.1200E+02
    -32.590  0.0000E+00  0.0000E+00  0.1200E+02  0.1200E+02
    -32.314  0.0000E+00  0.0000E+00  0.1200E+02  0.1200E+02
    -32.038  0.0000E+00  0.0000E+00  0.1200E+02  0.1200E+02
    -31.762  0.0000E+00  0.0000E+00  0.1200E+02  0.1200E+02
    -31.486  0.0000E+00  0.0000E+00  0.1200E+02  0.1200E+02
    -31.210  0.0000E+00  0.0000E+00  0.1200E+02  0.1200E+02
    -30.935  0.0000E+00  0.0000E+00  0.1200E+02  0.1200E+02
    -30.659  0.0000E+00  0.0000E+00  0.1200E+02  0.1200E+02
    -30.383  0.0000E+00  0.0000E+00  0.1200E+02  0.1200E+02
    -30.107  0.0000E+00  0.0000E+00  0.1200E+02  0.1200E+02
    -29.831  0.0000E+00  0.0000E+00  0.1200E+02  0.1200E+02
    -29.555  0.0000E+00  0.0000E+00  0.1200E+02  0.1200E+02
    -29.279  0.0000E+00  0.0000E+00  0.1200E+02  0.1200E+02
    -29.004  0.0000E+00  0.0000E+00  0.1200E+02  0.1200E+02
    -28.728  0.0000E+00  0.0000E+00  0.1200E+02  0.1200E+02
    -28.452  0.0000E+00  0.0000E+00  0.1200E+02  0.1200E+02
    -28.176  0.0000E+00  0.0000E+00  0.1200E+02  0.1200E+02
    -27.900  0.0000E+00  0.0000E+00  0.1200E+02  0.1200E+02
    -27.624  0.0000E+00  0.0000E+00  0.1200E+02  0.1200E+02
    -27.348  0.0000E+00  0.0000E+00  0.1200E+02  0.1200E+02
    -27.073  0.0000E+00  0.0000E+00  0.1200E+02  0.1200E+02
    -26.797  0.0000E+00  0.0000E+00  0.1200E+02  0.1200E+02
    -26.521  0.0000E+00  0.0000E+00  0.1200E+02  0.1200E+02
    -26.245  0.0000E+00  0.0000E+00  0.1200E+02  0.1200E+02
    -25.969  0.0000E+00  0.0000E+00  0.1200E+02  0.1200E+02
    -25.693  0.0000E+00  0.0000E+00  0.1200E+02  0.1200E+02
    -25.417  0.0000E+00  0.0000E+00  0.1200E+02  0.1200E+02
    -25.142  0.0000E+00  0.0000E+00  0.1200E+02  0.1200E+02
    -24.866  0.0000E+00  0.0000E+00  0.1200E+02  0.1200E+02
    -24.590  0.0000E+00  0.0000E+00  0.1200E+02  0.1200E+02
    -24.314  0.0000E+00  0.0000E+00  0.1200E+02  0.1200E+02
    -24.038  0.0000E+00  0.0000E+00  0.1200E+02  0.1200E+02
    -23.762  0.0000E+00  0.0000E+00  0.1200E+02  0.1200E+02
    -23.486  0.0000E+00  0.0000E+00  0.1200E+02  0.1200E+02
    -23.211  0.0000E+00  0.0000E+00  0.1200E+02  0.1200E+02
    -22.935  0.0000E+00  0.0000E+00  0.1200E+02  0.1200E+02
    -22.659  0.0000E+00  0.0000E+00  0.1200E+02  0.1200E+02
    -22.383  0.0000E+00  0.0000E+00  0.1200E+02  0.1200E+02
    -22.107  0.0000E+00  0.0000E+00  0.1200E+02  0.1200E+02
    -21.831  0.0000E+00  0.0000E+00  0.1200E+02  0.1200E+02
    -21.555  0.0000E+00  0.0000E+00  0.1200E+02  0.1200E+02
    -21.280  0.0000E+00  0.0000E+00  0.1200E+02  0.1200E+02
    -21.004  0.0000E+00  0.0000E+00  0.1200E+02  0.1200E+02
    -20.728  0.0000E+00  0.0000E+00  0.1200E+02  0.1200E+02
    -20.452  0.0000E+00  0.0000E+00  0.1200E+02  0.1200E+02
    -20.176  0.0000E+00  0.0000E+00  0.1200E+02  0.1200E+02
    -19.900  0.0000E+00  0.0000E+00  0.1200E+02  0.1200E+02
    -19.624  0.0000E+00  0.0000E+00  0.1200E+02  0.1200E+02
    -19.349  0.0000E+00  0.0000E+00  0.1200E+02  0.1200E+02
    -19.073  0.0000E+00  0.0000E+00  0.1200E+02  0.1200E+02
    -18.797  0.0000E+00  0.0000E+00  0.1200E+02  0.1200E+02
    -18.521  0.0000E+00  0.0000E+00  0.1200E+02  0.1200E+02
    -18.245  0.0000E+00  0.0000E+00  0.1200E+02  0.1200E+02
    -17.969  0.0000E+00  0.0000E+00  0.1200E+02  0.1200E+02
    -17.694  0.0000E+00  0.0000E+00  0.1200E+02  0.1200E+02
    -17.418  0.0000E+00  0.0000E+00  0.1200E+02  0.1200E+02
    -17.142  0.0000E+00  0.0000E+00  0.1200E+02  0.1200E+02
    -16.866  0.0000E+00  0.0000E+00  0.1200E+02  0.1200E+02
    -16.590  0.0000E+00  0.0000E+00  0.1200E+02  0.1200E+02
    -16.314  0.0000E+00  0.0000E+00  0.1200E+02  0.1200E+02
    -16.038  0.0000E+00  0.0000E+00  0.1200E+02  0.1200E+02
    -15.763  0.0000E+00  0.0000E+00  0.1200E+02  0.1200E+02
    -15.487  0.0000E+00  0.0000E+00  0.1200E+02  0.1200E+02
    -15.211  0.0000E+00  0.0000E+00  0.1200E+02  0.1200E+02
    -14.935  0.0000E+00  0.0000E+00  0.1200E+02  0.1200E+02
    -14.659  0.0000E+00  0.0000E+00  0.1200E+02  0.1200E+02
    -14.383  0.0000E+00  0.0000E+00  0.1200E+02  0.1200E+02
    -14.107  0.0000E+00  0.0000E+00  0.1200E+02  0.1200E+02
    -13.832  0.0000E+00  0.0000E+00  0.1200E+02  0.1200E+02
    -13.556  0.0000E+00  0.0000E+00  0.1200E+02  0.1200E+02
    -13.280  0.0000E+00  0.0000E+00  0.1200E+02  0.1200E+02
    -13.004  0.0000E+00  0.0000E+00  0.1200E+02  0.1200E+02
    -12.728  0.0000E+00  0.0000E+00  0.1200E+02  0.1200E+02
    -12.452  0.0000E+00  0.0000E+00  0.1200E+02  0.1200E+02
    -12.176  0.0000E+00  0.0000E+00  0.1200E+02  0.1200E+02
    -11.901  0.0000E+00  0.0000E+00  0.1200E+02  0.1200E+02
    -11.625  0.0000E+00  0.0000E+00  0.1200E+02  0.1200E+02
    -11.349  0.0000E+00  0.0000E+00  0.1200E+02  0.1200E+02
    -11.073  0.0000E+00  0.0000E+00  0.1200E+02  0.1200E+02
    -10.797  0.0000E+00  0.0000E+00  0.1200E+02  0.1200E+02
    -10.521  0.0000E+00  0.0000E+00  0.1200E+02  0.1200E+02
    -10.245  0.0000E+00  0.0000E+00  0.1200E+02  0.1200E+02
     -9.970  0.0000E+00  0.0000E+00  0.1200E+02  0.1200E+02
     -9.694  0.0000E+00  0.0000E+00  0.1200E+02  0.1200E+02
     -9.418  0.0000E+00  0.0000E+00  0.1200E+02  0.1200E+02
     -9.142  0.0000E+00  0.0000E+00  0.1200E+02  0.1200E+02
     -8.866  0.0000E+00  0.0000E+00  0.1200E+02  0.1200E+02
     -8.590  0.0000E+00  0.0000E+00  0.1200E+02  0.1200E+02
     -8.314  0.0000E+00  0.0000E+00  0.1200E+02  0.1200E+02
     -8.039  0.0000E+00  0.0000E+00  0.1200E+02  0.1200E+02
     -7.763  0.0000E+00  0.0000E+00  0.1200E+02  0.1200E+02
     -7.487  0.0000E+00  0.0000E+00  0.1200E+02  0.1200E+02
     -7.211  0.0000E+00  0.0000E+00  0.1200E+02  0.1200E+02
     -6.935  0.0000E+00  0.0000E+00  0.1200E+02  0.1200E+02
     -6.659  0.0000E+00  0.0000E+00  0.1200E+02  0.1200E+02
     -6.383  0.0000E+00  0.0000E+00  0.1200E+02  0.1200E+02
     -6.108  0.0000E+00  0.0000E+00  0.1200E+02  0.1200E+02
     -5.832  0.0000E+00  0.0000E+00  0.1200E+02  0.1200E+02
     -5.556  0.0000E+00  0.0000E+00  0.1200E+02  0.1200E+02
     -5.280  0.0000E+00  0.0000E+00  0.1200E+02  0.1200E+02
     -5.004  0.0000E+00  0.0000E+00  0.1200E+02  0.1200E+02
     -4.728  0.0000E+00  0.0000E+00  0.1200E+02  0.1200E+02
     -4.452  0.0000E+00  0.0000E+00  0.1200E+02  0.1200E+02
     -4.177  0.0000E+00  0.0000E+00  0.1200E+02  0.1200E+02
     -3.901  0.0000E+00  0.0000E+00  0.1200E+02  0.1200E+02
     -3.625  0.0000E+00  0.0000E+00  0.1200E+02  0.1200E+02
     -3.349  0.0000E+00  0.0000E+00  0.1200E+02  0.1200E+02
     -3.073  0.0000E+00  0.0000E+00  0.1200E+02  0.1200E+02
     -2.797  0.0000E+00  0.0000E+00  0.1200E+02  0.1200E+02
     -2.522  0.0000E+00  0.0000E+00  0.1200E+02  0.1200E+02
     -2.246  0.7750E-02  0.7750E-02  0.1200E+02  0.1200E+02
     -1.970  0.1892E+00  0.1892E+00  0.1202E+02  0.1202E+02
     -1.694  0.2821E+00  0.2821E+00  0.1209E+02  0.1209E+02
     -1.418  0.4995E+00  0.4995E+00  0.1220E+02  0.1220E+02
     -1.142  0.4527E+00  0.4527E+00  0.1233E+02  0.1233E+02
     -0.866  0.4604E+00  0.4604E+00  0.1245E+02  0.1245E+02
     -0.591  0.3536E+00  0.3536E+00  0.1257E+02  0.1257E+02
     -0.315  0.2924E+00  0.2924E+00  0.1265E+02  0.1265E+02
     -0.039  0.3631E+00  0.3631E+00  0.1273E+02  0.1273E+02
      0.237  0.6065E+00  0.6065E+00  0.1287E+02  0.1287E+02
      0.513  0.6576E+00  0.6576E+00  0.1305E+02  0.1305E+02
      0.789  0.6959E+00  0.6959E+00  0.1324E+02  0.1324E+02
      1.065  0.8153E+00  0.8153E+00  0.1344E+02  0.1344E+02
      1.340  0.1028E+01  0.1028E+01  0.1373E+02  0.1373E+02
      1.616  0.7666E+00  0.7666E+00  0.1397E+02  0.1397E+02
      1.892  0.5421E+00  0.5421E+00  0.1415E+02  0.1415E+02
      2.168  0.4914E+00  0.4914E+00  0.1429E+02  0.1429E+02
      2.444  0.7918E+00  0.7918E+00  0.1445E+02  0.1445E+02
      2.720  0.9192E+00  0.9192E+00  0.1472E+02  0.1472E+02
      2.996  0.1180E+01  0.1180E+01  0.1501E+02  0.1501E+02
      3.271  0.1170E+01  0.1170E+01  0.1531E+02  0.1531E+02
      3.547  0.1417E+01  0.1417E+01  0.1570E+02  0.1570E+02
      3.823  0.1049E+01  0.1049E+01  0.1603E+02  0.1603E+02
      4.099  0.9553E+00  0.9553E+00  0.1628E+02  0.1628E+02
      4.375  0.2113E+01  0.2113E+01  0.1668E+02  0.1668E+02
      4.651  0.1734E+01  0.1734E+01  0.1721E+02  0.1721E+02
      4.927  0.2204E+01  0.2204E+01  0.1769E+02  0.1769E+02
      5.202  0.3243E+01  0.3243E+01  0.1861E+02  0.1861E+02
      5.478  0.3335E+01  0.3335E+01  0.1950E+02  0.1950E+02
      5.754  0.5074E+01  0.5074E+01  0.2065E+02  0.2065E+02
      6.030  0.6516E+01  0.6516E+01  0.2229E+02  0.2229E+02
      6.306  0.7861E+01  0.7861E+01  0.2417E+02  0.2417E+02
      6.582  0.7253E+01  0.7253E+01  0.2629E+02  0.2629E+02
      6.858  0.3783E+01  0.3783E+01  0.2769E+02  0.2769E+02
      7.133  0.7708E+01  0.7708E+01  0.2934E+02  0.2934E+02
      7.409  0.6210E+01  0.6210E+01  0.3129E+02  0.3129E+02
      7.685  0.5956E+01  0.5956E+01  0.3393E+02  0.3393E+02
      7.961  0.3821E+01  0.3821E+01  0.3608E+02  0.3608E+02
      8.237  0.3151E+01  0.3151E+01  0.3688E+02  0.3688E+02
      8.513  0.2243E+01  0.2243E+01  0.3761E+02  0.3761E+02
      8.789  0.2174E+01  0.2174E+01  0.3827E+02  0.3827E+02
      9.064  0.1657E+01  0.1657E+01  0.3875E+02  0.3875E+02
      9.340  0.1710E+01  0.1710E+01  0.3923E+02  0.3923E+02
      9.616  0.1306E+01  0.1306E+01  0.3961E+02  0.3961E+02
      9.892  0.1304E+01  0.1304E+01  0.3999E+02  0.3999E+02
     10.168  0.1064E+01  0.1064E+01  0.4031E+02  0.4031E+02
     10.444  0.9905E+00  0.9905E+00  0.4059E+02  0.4059E+02
     10.720  0.1007E+01  0.1007E+01  0.4089E+02  0.4089E+02
     10.995  0.1176E+01  0.1176E+01  0.4118E+02  0.4118E+02
     11.271  0.1452E+01  0.1452E+01  0.4157E+02  0.4157E+02
     11.547  0.1547E+01  0.1547E+01  0.4197E+02  0.4197E+02
     11.823  0.1761E+01  0.1761E+01  0.4242E+02  0.4242E+02
     12.099  0.1688E+01  0.1688E+01  0.4283E+02  0.4283E+02
     12.375  0.1671E+01  0.1671E+01  0.4335E+02  0.4335E+02
     12.650  0.1290E+01  0.1290E+01  0.4378E+02  0.4378E+02
     12.926  0.1286E+01  0.1286E+01  0.4414E+02  0.4414E+02
     13.202  0.1304E+01  0.1304E+01  0.4451E+02  0.4451E+02
     13.478  0.1085E+01  0.1085E+01  0.4483E+02  0.4483E+02
     13.754  0.1307E+01  0.1307E+01  0.4513E+02  0.4513E+02
     14.030  0.1193E+01  0.1193E+01  0.4545E+02  0.4545E+02
     14.306  0.1649E+01  0.1649E+01  0.4583E+02  0.4583E+02
     14.581  0.2619E+01  0.2619E+01  0.4638E+02  0.4638E+02
     14.857  0.2156E+01  0.2156E+01  0.4709E+02  0.4709E+02
     15.133  0.1053E+01  0.1053E+01  0.4752E+02  0.4752E+02
     15.409  0.1009E+01  0.1009E+01  0.4781E+02  0.4781E+02
     15.685  0.1162E+01  0.1162E+01  0.4810E+02  0.4810E+02
     15.961  0.1391E+01  0.1391E+01  0.4843E+02  0.4843E+02
     16.237  0.1683E+01  0.1683E+01  0.4888E+02  0.4888E+02
     16.512  0.2370E+01  0.2370E+01  0.4939E+02  0.4939E+02
     16.788  0.1902E+01  0.1902E+01  0.4991E+02  0.4991E+02
     17.064  0.1528E+01  0.1528E+01  0.5041E+02  0.5041E+02
     17.340  0.1452E+01  0.1452E+01  0.5077E+02  0.5077E+02
     17.616  0.1352E+01  0.1352E+01  0.5118E+02  0.5118E+02
     17.892  0.9946E+00  0.9946E+00  0.5150E+02  0.5150E+02
     18.168  0.6849E+00  0.6849E+00  0.5174E+02  0.5174E+02
     18.443  0.6263E+00  0.6263E+00  0.5190E+02  0.5190E+02
     18.719  0.7115E-01  0.7115E-01  0.5197E+02  0.5197E+02
     18.995  0.2934E-01  0.2934E-01  0.5199E+02  0.5199E+02
     19.271  0.1901E-01  0.1901E-01  0.5199E+02  0.5199E+02
     19.547  0.1130E-01  0.1130E-01  0.5200E+02  0.5200E+02
     19.823  0.5579E-02  0.5579E-02  0.5200E+02  0.5200E+02
     20.099  0.1857E-02  0.1857E-02  0.5200E+02  0.5200E+02
     20.374  0.1320E-03  0.1320E-03  0.5200E+02  0.5200E+02
     20.650  0.0000E+00  0.0000E+00  0.5200E+02  0.5200E+02
     20.926  0.0000E+00  0.0000E+00  0.5200E+02  0.5200E+02
     21.202  0.0000E+00  0.0000E+00  0.5200E+02  0.5200E+02
     21.478  0.0000E+00  0.0000E+00  0.5200E+02  0.5200E+02
     21.754  0.0000E+00  0.0000E+00  0.5200E+02  0.5200E+02
     22.030  0.0000E+00  0.0000E+00  0.5200E+02  0.5200E+02
     22.305  0.0000E+00  0.0000E+00  0.5200E+02  0.5200E+02
     22.581  0.0000E+00  0.0000E+00  0.5200E+02  0.5200E+02
     22.857  0.0000E+00  0.0000E+00  0.5200E+02  0.5200E+02
     23.133  0.0000E+00  0.0000E+00  0.5200E+02  0.5200E+02
     23.409  0.0000E+00  0.0000E+00  0.5200E+02  0.5200E+02
     23.685  0.0000E+00  0.0000E+00  0.5200E+02  0.5200E+02
     23.961  0.0000E+00  0.0000E+00  0.5200E+02  0.5200E+02
     24.236  0.0000E+00  0.0000E+00  0.5200E+02  0.5200E+02
