       N       E                     dE             d eps       ncg     rms          rms(c)
DAV:   1    -0.409161975700E+02   -0.40916E+02   -0.32947E-01  4992   0.624E+00    0.923E-02
DAV:   2    -0.409166930328E+02   -0.49546E-03   -0.95190E-04  7248   0.270E-01    0.164E-01
DAV:   3    -0.409162067421E+02    0.48629E-03   -0.18407E-03  5908   0.255E-01    0.533E-02
DAV:   4    -0.409163460677E+02   -0.13933E-03   -0.79659E-05  6084   0.891E-02    0.141E-02
DAV:   5    -0.409163661718E+02   -0.20104E-04   -0.93415E-06  5564   0.212E-02    0.768E-03
DAV:   6    -0.409163518526E+02    0.14319E-04   -0.15638E-06  6328   0.128E-02    0.115E-03
DAV:   7    -0.409163532647E+02   -0.14121E-05   -0.10796E-07  5136   0.379E-03    0.540E-04
DAV:   8    -0.409163515717E+02    0.16930E-05   -0.78586E-09  2760   0.957E-04    0.663E-05
DAV:   9    -0.409163515311E+02    0.40591E-07   -0.21187E-09  2652   0.322E-04    0.413E-05
DAV:  10    -0.409163516838E+02   -0.15266E-06   -0.43891E-10  2616   0.167E-04    0.277E-05
DAV:  11    -0.409163516994E+02   -0.15647E-07   -0.14651E-10  2584   0.108E-04    0.497E-06
DAV:  12    -0.409163516925E+02    0.68940E-08   -0.50397E-11  2616   0.581E-05
   1 F= -.40916352E+02 E0= -.40916352E+02  d E =0.000000E+00  mag=    -0.0000
