 running on   24 total cores
 distrk:  each k-point on   24 cores,    1 groups
 distr:  one band on    6 cores,    4 groups
 using from now: INCAR     
 vasp.5.4.4.18Apr17-6-g9f103f2a35 (build Jan 03 2018 06:08:52) complex          
  
 POSCAR found :  2 types and       8 ions
 scaLAPACK will be used
 WARNING: for PREC=h ENMAX is automatically increase by 25 %
        this was not the case for versions prior to vasp.4.4
 WARNING: for PREC=h ENMAX is automatically increase by 25 %
        this was not the case for versions prior to vasp.4.4
 LDA part: xc-table for Pade appr. of Perdew
 POSCAR, INCAR and KPOINTS ok, starting setup
 FFT: planning ...
 WAVECAR not read
 entering main loop
       N       E                     dE             d eps       ncg     rms          rms(c)
DAV:   1     0.852225826331E+03    0.85223E+03   -0.43892E+04  6224   0.163E+03
DAV:   2     0.125810349823E+02   -0.83964E+03   -0.80424E+03  5036   0.520E+02
DAV:   3    -0.443820317730E+02   -0.56963E+02   -0.52392E+02  5924   0.150E+02
DAV:   4    -0.463610225705E+02   -0.19790E+01   -0.19649E+01  5640   0.263E+01
DAV:   5    -0.464088691252E+02   -0.47847E-01   -0.47830E-01  5676   0.428E+00    0.303E+01
DAV:   6    -0.666352534973E+02   -0.20226E+02   -0.16546E+02  5740   0.146E+02    0.420E+01
DAV:   7    -0.398631725083E+02    0.26772E+02   -0.61772E+01  5652   0.932E+01    0.742E+00
DAV:   8    -0.397057953446E+02    0.15738E+00   -0.61650E+00  6660   0.189E+01    0.424E+00
DAV:   9    -0.395504010473E+02    0.15539E+00   -0.84362E-01  6004   0.935E+00    0.117E+00
DAV:  10    -0.395406532045E+02    0.97478E-02   -0.29539E-02  5668   0.169E+00    0.410E-01
DAV:  11    -0.395387607344E+02    0.18925E-02   -0.79532E-03  6776   0.821E-01    0.186E-01
DAV:  12    -0.395387197501E+02    0.40984E-04   -0.94396E-04  5528   0.252E-01    0.109E-01
DAV:  13    -0.395386053867E+02    0.11436E-03   -0.19291E-04  7052   0.125E-01    0.264E-02
DAV:  14    -0.395385998099E+02    0.55768E-05   -0.31148E-05  7008   0.419E-02    0.682E-03
DAV:  15    -0.395385989723E+02    0.83762E-06   -0.23077E-06  5748   0.111E-02    0.638E-03
DAV:  16    -0.395385983967E+02    0.57564E-06   -0.80480E-07  5896   0.903E-03    0.121E-03
DAV:  17    -0.395385983232E+02    0.73516E-07   -0.63475E-08  5732   0.168E-03    0.345E-04
DAV:  18    -0.395385982911E+02    0.32067E-07   -0.30985E-09  2800   0.488E-04    0.170E-04
DAV:  19    -0.395385982813E+02    0.97825E-08   -0.11831E-09  2780   0.327E-04
   1 F= -.39538598E+02 E0= -.39538091E+02  d E =-.395386E+02  mag=     0.0000
 curvature:   0.00 expect dE= 0.000E+00 dE for cont linesearch  0.000E+00
 trial: gam= 0.00000 g(F)=  0.759E+00 g(S)=  0.424E+01 ort = 0.000E+00 (trialstep = 0.100E+01)
 search vector abs. value=  0.499E+01
 bond charge predicted
       N       E                     dE             d eps       ncg     rms          rms(c)
DAV:   1    -0.217897090116E+03   -0.17836E+03   -0.22375E+03  5080   0.566E+02    0.101E+02
DAV:   2    -0.976536341343E+02    0.12024E+03   -0.10742E+03  5720   0.247E+02    0.658E+01
DAV:   3    -0.708062447542E+02    0.26847E+02   -0.35821E+02  5728   0.179E+02    0.473E+01
DAV:   4    -0.416239409533E+02    0.29182E+02   -0.86187E+01  5648   0.945E+01    0.557E+00
DAV:   5    -0.414044319278E+02    0.21951E+00   -0.80742E+00  5480   0.248E+01    0.120E+01
DAV:   6    -0.402592191982E+02    0.11452E+01   -0.46736E+00  5980   0.196E+01    0.296E+00
DAV:   7    -0.401331993797E+02    0.12602E+00   -0.37400E-01  6024   0.479E+00    0.250E-01
DAV:   8    -0.401347747446E+02   -0.15754E-02   -0.17055E-02  5344   0.959E-01    0.301E-01
DAV:   9    -0.401339855341E+02    0.78921E-03   -0.64985E-03  5980   0.712E-01    0.153E-01
DAV:  10    -0.401338568191E+02    0.12871E-03   -0.36133E-04  5672   0.169E-01    0.594E-02
DAV:  11    -0.401338354569E+02    0.21362E-04   -0.63139E-05  6944   0.640E-02    0.521E-03
DAV:  12    -0.401338355274E+02   -0.70437E-07   -0.49231E-06  6412   0.138E-02    0.625E-03
DAV:  13    -0.401338349524E+02    0.57499E-06   -0.78541E-07  5424   0.757E-03    0.215E-03
DAV:  14    -0.401338347542E+02    0.19818E-06   -0.12690E-07  6292   0.280E-03    0.250E-04
DAV:  15    -0.401338347444E+02    0.98426E-08   -0.43537E-09  2792   0.638E-04
   2 F= -.40133835E+02 E0= -.40132987E+02  d E =-.595236E+00  mag=     0.0000
 trial-energy change:   -0.595236  1 .order   -0.936965   -4.994615    3.120685
 step:   0.5530(harm=  0.6155)  dis= 0.03738  next Energy=   -40.861825 (dE=-0.132E+01)
 bond charge predicted
       N       E                     dE             d eps       ncg     rms          rms(c)
DAV:   1    -0.102992328898E+03   -0.62858E+02   -0.50633E+02  5568   0.209E+02    0.828E+01
DAV:   2    -0.181760389021E+03   -0.78768E+02   -0.10689E+03  5408   0.363E+02    0.735E+01
DAV:   3    -0.531609348903E+02    0.12860E+03   -0.37076E+02  5648   0.161E+02    0.243E+01
DAV:   4    -0.526573939326E+02    0.50354E+00   -0.50641E+00  5232   0.137E+01    0.238E+01
DAV:   5    -0.497090246338E+02    0.29484E+01   -0.92802E-01  5960   0.968E+00    0.200E+01
DAV:   6    -0.439528004111E+02    0.57562E+01   -0.44837E+01  5992   0.575E+01    0.165E+01
DAV:   7    -0.422054014855E+02    0.17474E+01   -0.28104E+00  5552   0.142E+01    0.113E+01
DAV:   8    -0.412938461075E+02    0.91156E+00   -0.93421E-01  5728   0.787E+00    0.645E+00
DAV:   9    -0.411653018065E+02    0.12854E+00   -0.73163E-02  5520   0.182E+00    0.553E+00
DAV:  10    -0.408802874473E+02    0.28501E+00   -0.29302E-01  5840   0.471E+00    0.238E+00
DAV:  11    -0.408244267041E+02    0.55861E-01   -0.85835E-02  5952   0.205E+00    0.100E+00
DAV:  12    -0.408140990091E+02    0.10328E-01   -0.13561E-02  5608   0.717E-01    0.540E-01
DAV:  13    -0.408111484904E+02    0.29505E-02   -0.10408E-02  6248   0.892E-01    0.103E-01
DAV:  14    -0.408110990291E+02    0.49461E-04   -0.68333E-04  5412   0.235E-01    0.239E-02
DAV:  15    -0.408111034752E+02   -0.44461E-05   -0.39843E-05  5560   0.514E-02    0.206E-02
DAV:  16    -0.408111024081E+02    0.10670E-05   -0.64202E-06  5596   0.177E-02    0.164E-02
DAV:  17    -0.408111017928E+02    0.61539E-06   -0.11339E-05  5856   0.301E-02    0.448E-03
DAV:  18    -0.408111018238E+02   -0.31027E-07   -0.53276E-07  5208   0.558E-03    0.440E-03
DAV:  19    -0.408111015915E+02    0.23226E-06   -0.16517E-07  5372   0.354E-03    0.218E-03
DAV:  20    -0.408111014884E+02    0.10312E-06   -0.62424E-08  4280   0.208E-03    0.809E-04
DAV:  21    -0.408111014379E+02    0.50488E-07   -0.10159E-08  2796   0.907E-04    0.195E-04
DAV:  22    -0.408111014212E+02    0.16733E-07   -0.39407E-09  2616   0.306E-04    0.575E-05
DAV:  23    -0.408111014264E+02   -0.52041E-08   -0.70087E-10  2584   0.243E-04
   3 F= -.40811101E+02 E0= -.40810187E+02  d E =-.127250E+01  mag=    -0.0000
 curvature:  -0.30 expect dE=-0.138E-01 dE for cont linesearch -0.321E-03
 ZBRENT: interpolating
 opt :   0.5450  next Energy=   -40.811393 (dE=-0.127E+01)
 bond charge predicted
       N       E                     dE             d eps       ncg     rms          rms(c)
DAV:   1    -0.408321665296E+02   -0.21065E-01   -0.14978E-01  5456   0.406E+00    0.159E+00
DAV:   2    -0.409086105765E+02   -0.76444E-01   -0.49908E-01  5728   0.715E+00    0.302E+00
DAV:   3    -0.408113414844E+02    0.97269E-01   -0.24188E-01  5680   0.509E+00    0.144E-01
DAV:   4    -0.408115294215E+02   -0.18794E-03   -0.50845E-03  5144   0.374E-01    0.132E-01
DAV:   5    -0.408113989021E+02    0.13052E-03   -0.37026E-04  6080   0.183E-01    0.164E-02
DAV:   6    -0.408113951473E+02    0.37549E-05   -0.23059E-05  5284   0.458E-02    0.528E-03
DAV:   7    -0.408113943163E+02    0.83099E-06   -0.13553E-06  6168   0.111E-02    0.106E-03
DAV:   8    -0.408113941544E+02    0.16187E-06   -0.79015E-08  5024   0.180E-03    0.694E-04
DAV:   9    -0.408113940462E+02    0.10820E-06   -0.45938E-09  2824   0.544E-04    0.315E-04
DAV:  10    -0.408113939891E+02    0.57091E-07   -0.22535E-09  2676   0.344E-04    0.222E-05
DAV:  11    -0.408113939843E+02    0.47767E-08   -0.73615E-10  2668   0.218E-04
   4 F= -.40811394E+02 E0= -.40810483E+02  d E =-.127280E+01  mag=     0.0000
 curvature:  -0.27 expect dE=-0.118E-01 dE for cont linesearch -0.102E-04
 ZBRENT: interpolating
 opt :   0.5432  next Energy=   -40.811407 (dE=-0.127E+01)
 bond charge predicted
       N       E                     dE             d eps       ncg     rms          rms(c)
DAV:   1    -0.408124920709E+02   -0.10981E-02   -0.78901E-03  5440   0.934E-01    0.366E-01
DAV:   2    -0.408167027009E+02   -0.42106E-02   -0.27088E-02  5712   0.165E+00    0.722E-01
DAV:   3    -0.408113983137E+02    0.53044E-02   -0.13127E-02  5680   0.118E+00    0.370E-02
DAV:   4    -0.408114033542E+02   -0.50405E-05   -0.26145E-04  5128   0.884E-02    0.271E-02
DAV:   5    -0.408113976320E+02    0.57222E-05   -0.14021E-05  6232   0.353E-02    0.299E-03
DAV:   6    -0.408113972615E+02    0.37050E-06   -0.67115E-07  5200   0.713E-03    0.533E-04
DAV:   7    -0.408113971270E+02    0.13450E-06   -0.18811E-08  4448   0.109E-03    0.205E-04
DAV:   8    -0.408113970799E+02    0.47154E-07   -0.31251E-09  2712   0.455E-04    0.568E-05
DAV:   9    -0.408113970599E+02    0.20027E-07   -0.89045E-10  2672   0.255E-04    0.728E-05
DAV:  10    -0.408113970544E+02    0.54188E-08   -0.35800E-10  2616   0.188E-04
   5 F= -.40811397E+02 E0= -.40810487E+02  d E =-.127280E+01  mag=    -0.0000
 curvature:  -0.34 expect dE=-0.144E-01 dE for cont linesearch -0.162E-08
 trial: gam= 0.00863 g(F)=  0.215E-01 g(S)=  0.215E-01 ort =-0.156E-03 (trialstep = 0.909E+00)
 search vector abs. value=  0.433E-01
 bond charge predicted
       N       E                     dE             d eps       ncg     rms          rms(c)
DAV:   1    -0.410610862087E+02   -0.24969E+00   -0.39725E+00  6216   0.254E+01    0.513E+00
DAV:   2    -0.415724229800E+02   -0.51134E+00   -0.43147E+00  5696   0.213E+01    0.799E+00
DAV:   3    -0.408502500825E+02    0.72217E+00   -0.19076E+00  5664   0.146E+01    0.109E+00
DAV:   4    -0.408381960156E+02    0.12054E-01   -0.56211E-02  5504   0.154E+00    0.363E-01
DAV:   5    -0.408371749612E+02    0.10211E-02   -0.63259E-03  5800   0.742E-01    0.820E-02
DAV:   6    -0.408371339537E+02    0.41008E-04   -0.59032E-04  5360   0.238E-01    0.376E-02
DAV:   7    -0.408371390060E+02   -0.50523E-05   -0.55259E-05  6296   0.699E-02    0.190E-02
DAV:   8    -0.408371352679E+02    0.37380E-05   -0.10724E-05  5704   0.334E-02    0.239E-03
DAV:   9    -0.408371350856E+02    0.18240E-06   -0.63625E-07  5880   0.826E-03    0.437E-04
DAV:  10    -0.408371350390E+02    0.46548E-07   -0.28171E-08  4304   0.115E-03    0.275E-04
DAV:  11    -0.408371350305E+02    0.85292E-08   -0.32026E-09  2760   0.527E-04
   6 F= -.40837135E+02 E0= -.40835829E+02  d E =-.257380E-01  mag=    -0.0000
 trial-energy change:   -0.025738  1 .order   -0.026466   -0.039039   -0.013894
 step:   1.6403(harm=  1.4107)  dis= 0.01927  next Energy=   -40.842348 (dE=-0.310E-01)
 bond charge predicted
       N       E                     dE             d eps       ncg     rms          rms(c)
DAV:   1    -0.409875282440E+02   -0.15039E+00   -0.26235E+00  6208   0.205E+01    0.420E+00
DAV:   2    -0.413458674620E+02   -0.35834E+00   -0.29839E+00  5712   0.175E+01    0.660E+00
DAV:   3    -0.408500246681E+02    0.49584E+00   -0.12746E+00  5664   0.120E+01    0.849E-01
DAV:   4    -0.408430489757E+02    0.69757E-02   -0.38930E-02  5464   0.123E+00    0.356E-01
DAV:   5    -0.408419669366E+02    0.10820E-02   -0.53647E-03  5832   0.691E-01    0.798E-02
DAV:   6    -0.408419189198E+02    0.48017E-04   -0.48260E-04  5368   0.214E-01    0.261E-02
DAV:   7    -0.408419229704E+02   -0.40506E-05   -0.28887E-05  6444   0.493E-02    0.126E-02
DAV:   8    -0.408419212178E+02    0.17526E-05   -0.58797E-06  5860   0.242E-02    0.262E-03
DAV:   9    -0.408419210644E+02    0.15340E-06   -0.45735E-07  5936   0.728E-03    0.405E-04
DAV:  10    -0.408419210345E+02    0.29931E-07   -0.16301E-08  3592   0.948E-04    0.222E-04
DAV:  11    -0.408419210333E+02    0.11914E-08   -0.21205E-09  2700   0.416E-04
   7 F= -.40841921E+02 E0= -.40840921E+02  d E =-.305240E-01  mag=     0.0000
 curvature:  -0.56 expect dE=-0.143E-01 dE for cont linesearch -0.134E-03
 trial: gam= 0.69304 g(F)=  0.681E-02 g(S)=  0.186E-01 ort =-0.321E-02 (trialstep = 0.105E+01)
 search vector abs. value=  0.418E-01
 bond charge predicted
       N       E                     dE             d eps       ncg     rms          rms(c)
DAV:   1    -0.412698670473E+02   -0.42795E+00   -0.87286E+00  6360   0.375E+01    0.662E+00
DAV:   2    -0.420639123727E+02   -0.79405E+00   -0.75010E+00  5728   0.283E+01    0.110E+01
DAV:   3    -0.409076944304E+02    0.11562E+01   -0.31957E+00  5632   0.182E+01    0.205E+00
DAV:   4    -0.408558225421E+02    0.51872E-01   -0.14545E-01  6248   0.336E+00    0.175E-01
DAV:   5    -0.408561816139E+02   -0.35907E-03   -0.12913E-02  5336   0.103E+00    0.974E-02
DAV:   6    -0.408560786735E+02    0.10294E-03   -0.40517E-04  6736   0.186E-01    0.612E-02
DAV:   7    -0.408560789497E+02   -0.27618E-06   -0.76305E-05  6400   0.704E-02    0.927E-03
DAV:   8    -0.408560798646E+02   -0.91490E-06   -0.83677E-06  5744   0.305E-02    0.311E-03
DAV:   9    -0.408560803529E+02   -0.48837E-06   -0.37546E-07  5632   0.452E-03    0.891E-04
DAV:  10    -0.408560804465E+02   -0.93543E-07   -0.37343E-08  5004   0.167E-03    0.200E-04
DAV:  11    -0.408560804416E+02    0.48749E-08   -0.36189E-09  2744   0.440E-04
   8 F= -.40856080E+02 E0= -.40855117E+02  d E =-.141594E-01  mag=    -0.0000
 trial-energy change:   -0.014159  1 .order   -0.014746   -0.024495   -0.004996
 step:   1.4113(harm=  1.3253)  dis= 0.00404  next Energy=   -40.856902 (dE=-0.150E-01)
 bond charge predicted
       N       E                     dE             d eps       ncg     rms          rms(c)
DAV:   1    -0.409027299949E+02   -0.46650E-01   -0.97870E-01  6344   0.126E+01    0.222E+00
DAV:   2    -0.409894794018E+02   -0.86749E-01   -0.75450E-01  5704   0.943E+00    0.354E+00
DAV:   3    -0.408622071134E+02    0.12727E+00   -0.35057E-01  5664   0.607E+00    0.649E-01
DAV:   4    -0.408567688699E+02    0.54382E-02   -0.13541E-02  5920   0.983E-01    0.891E-02
DAV:   5    -0.408567830709E+02   -0.14201E-04   -0.14871E-03  5480   0.333E-01    0.327E-02
DAV:   6    -0.408567729916E+02    0.10079E-04   -0.50439E-05  6344   0.737E-02    0.198E-02
DAV:   7    -0.408567746819E+02   -0.16903E-05   -0.84827E-06  6384   0.244E-02    0.303E-03
DAV:   8    -0.408567749040E+02   -0.22214E-06   -0.92013E-07  5624   0.112E-02    0.979E-04
DAV:   9    -0.408567750464E+02   -0.14242E-06   -0.43317E-08  5064   0.150E-03    0.202E-04
DAV:  10    -0.408567750408E+02    0.56662E-08   -0.31711E-09  2688   0.651E-04
   9 F= -.40856775E+02 E0= -.40856120E+02  d E =-.148540E-01  mag=     0.0000
 curvature:  -1.07 expect dE=-0.414E-02 dE for cont linesearch -0.287E-04
 ZBRENT: interpolating
 opt :   1.3463  next Energy=   -40.856809 (dE=-0.149E-01)
 bond charge predicted
       N       E                     dE             d eps       ncg     rms          rms(c)
DAV:   1    -0.408583264471E+02   -0.15514E-02   -0.32363E-02  6352   0.231E+00    0.408E-01
DAV:   2    -0.408612561088E+02   -0.29297E-02   -0.24736E-02  5752   0.174E+00    0.622E-01
DAV:   3    -0.408569691097E+02    0.42870E-02   -0.11026E-02  5688   0.113E+00    0.115E-01
DAV:   4    -0.408568008633E+02    0.16825E-03   -0.48308E-04  5824   0.175E-01    0.203E-02
DAV:   5    -0.408568002856E+02    0.57771E-06   -0.52651E-05  5584   0.722E-02    0.554E-03
DAV:   6    -0.408567998316E+02    0.45401E-06   -0.18132E-06  5720   0.135E-02    0.313E-03
DAV:   7    -0.408567996667E+02    0.16490E-06   -0.18844E-07  6352   0.338E-03    0.528E-04
DAV:   8    -0.408567995948E+02    0.71957E-07   -0.17991E-08  3220   0.158E-03    0.180E-04
DAV:   9    -0.408567995701E+02    0.24695E-07   -0.32021E-09  2652   0.446E-04    0.645E-05
DAV:  10    -0.408567995688E+02    0.12442E-08   -0.83883E-10  2628   0.253E-04
  10 F= -.40856800E+02 E0= -.40856078E+02  d E =-.148785E-01  mag=     0.0000
 curvature:  -1.29 expect dE=-0.430E-02 dE for cont linesearch -0.282E-07
 trial: gam= 0.18009 g(F)=  0.586E-03 g(S)=  0.276E-02 ort = 0.303E-04 (trialstep = 0.111E+01)
 search vector abs. value=  0.471E-02
 bond charge predicted
       N       E                     dE             d eps       ncg     rms          rms(c)
DAV:   1    -0.410225842418E+02   -0.16578E+00   -0.17245E+00  5528   0.148E+01    0.447E+00
DAV:   2    -0.415496519695E+02   -0.52707E+00   -0.36924E+00  5688   0.198E+01    0.784E+00
DAV:   3    -0.408613768764E+02    0.68828E+00   -0.16768E+00  5664   0.138E+01    0.619E-01
DAV:   4    -0.408599921369E+02    0.13847E-02   -0.47998E-02  5280   0.122E+00    0.439E-01
DAV:   5    -0.408582506823E+02    0.17415E-02   -0.54248E-03  6072   0.724E-01    0.595E-02
DAV:   6    -0.408582061500E+02    0.44532E-04   -0.28682E-04  5536   0.127E-01    0.211E-02
DAV:   7    -0.408582058064E+02    0.34365E-06   -0.23888E-05  5712   0.473E-02    0.642E-03
DAV:   8    -0.408582051421E+02    0.66422E-06   -0.14559E-06  6304   0.871E-03    0.151E-03
DAV:   9    -0.408582049689E+02    0.17328E-06   -0.24097E-07  6336   0.525E-03    0.105E-03
DAV:  10    -0.408582048951E+02    0.73745E-07   -0.28133E-08  3872   0.161E-03    0.109E-04
DAV:  11    -0.408582048873E+02    0.78380E-08   -0.15248E-09  2660   0.288E-04
  11 F= -.40858205E+02 E0= -.40857706E+02  d E =-.140532E-02  mag=    -0.0000
 trial-energy change:   -0.001405  1 .order   -0.001385   -0.003732    0.000962
 step:   0.8897(harm=  0.8851)  dis= 0.00098  next Energy=   -40.858301 (dE=-0.150E-02)
 bond charge predicted
       N       E                     dE             d eps       ncg     rms          rms(c)
DAV:   1    -0.408646807941E+02   -0.64759E-02   -0.68662E-02  5504   0.299E+00    0.843E-01
DAV:   2    -0.408811738769E+02   -0.16493E-01   -0.12659E-01  5680   0.372E+00    0.145E+00
DAV:   3    -0.408584782447E+02    0.22696E-01   -0.56096E-02  5688   0.253E+00    0.145E-01
DAV:   4    -0.408583489808E+02    0.12926E-03   -0.13185E-03  5152   0.219E-01    0.721E-02
DAV:   5    -0.408582991055E+02    0.49875E-04   -0.11186E-04  6560   0.855E-02    0.883E-03
DAV:   6    -0.408582997623E+02   -0.65680E-06   -0.11241E-05  5288   0.345E-02    0.612E-03
DAV:   7    -0.408582999855E+02   -0.22323E-06   -0.87580E-07  5892   0.922E-03    0.130E-03
DAV:   8    -0.408583000873E+02   -0.10173E-06   -0.57630E-08  4920   0.194E-03    0.362E-04
DAV:   9    -0.408583001259E+02   -0.38624E-07   -0.39289E-09  2708   0.627E-04    0.718E-05
DAV:  10    -0.408583001303E+02   -0.44383E-08   -0.11553E-09  2628   0.228E-04
  12 F= -.40858300E+02 E0= -.40857752E+02  d E =-.150056E-02  mag=    -0.0000
 curvature:  -0.62 expect dE=-0.142E-03 dE for cont linesearch -0.393E-09
 trial: gam= 0.09251 g(F)=  0.186E-03 g(S)=  0.427E-04 ort = 0.173E-05 (trialstep = 0.107E+01)
 search vector abs. value=  0.269E-03
 bond charge predicted
       N       E                     dE             d eps       ncg     rms          rms(c)
DAV:   1    -0.408538764181E+02    0.44237E-02   -0.12676E-01  8008   0.112E+01    0.260E-01
DAV:   2    -0.408598568926E+02   -0.59805E-02   -0.58934E-02  5568   0.178E+00    0.342E-01
DAV:   3    -0.408586239376E+02    0.12330E-02   -0.50346E-03  5952   0.780E-01    0.107E-01
DAV:   4    -0.408585082195E+02    0.11572E-03   -0.25753E-04  5768   0.157E-01    0.466E-02
DAV:   5    -0.408584781370E+02    0.30083E-04   -0.62955E-05  5832   0.673E-02    0.707E-03
DAV:   6    -0.408584785114E+02   -0.37442E-06   -0.11893E-05  5588   0.291E-02    0.355E-03
DAV:   7    -0.408584786192E+02   -0.10783E-06   -0.48781E-07  6628   0.570E-03    0.121E-03
DAV:   8    -0.408584787121E+02   -0.92901E-07   -0.30877E-08  4652   0.153E-03    0.367E-04
DAV:   9    -0.408584787348E+02   -0.22685E-07   -0.89936E-09  2676   0.103E-03    0.135E-04
DAV:  10    -0.408584787417E+02   -0.68576E-08   -0.17202E-09  2620   0.433E-04
  13 F= -.40858479E+02 E0= -.40858010E+02  d E =-.178611E-03  mag=     0.0000
 trial-energy change:   -0.000179  1 .order   -0.000179   -0.000245   -0.000114
 step:   2.0707(harm=  2.0030)  dis= 0.00227  next Energy=   -40.858532 (dE=-0.232E-03)
 bond charge predicted
       N       E                     dE             d eps       ncg     rms          rms(c)
DAV:   1    -0.408544774266E+02    0.40013E-02   -0.11149E-01  8008   0.105E+01    0.243E-01
DAV:   2    -0.408597119623E+02   -0.52345E-02   -0.51728E-02  5568   0.167E+00    0.317E-01
DAV:   3    -0.408586543652E+02    0.10576E-02   -0.43642E-03  5952   0.727E-01    0.999E-02
DAV:   4    -0.408585527079E+02    0.10166E-03   -0.22643E-04  5776   0.147E-01    0.436E-02
DAV:   5    -0.408585263255E+02    0.26382E-04   -0.55271E-05  5840   0.633E-02    0.661E-03
DAV:   6    -0.408585266688E+02   -0.34333E-06   -0.10511E-05  5572   0.273E-02    0.330E-03
DAV:   7    -0.408585267657E+02   -0.96874E-07   -0.42370E-07  6620   0.529E-03    0.113E-03
DAV:   8    -0.408585268502E+02   -0.84492E-07   -0.25708E-08  4484   0.139E-03    0.339E-04
DAV:   9    -0.408585268724E+02   -0.22203E-07   -0.80215E-09  2668   0.963E-04    0.127E-04
DAV:  10    -0.408585268786E+02   -0.61864E-08   -0.15801E-09  2640   0.412E-04
  14 F= -.40858527E+02 E0= -.40858135E+02  d E =-.226748E-03  mag=    -0.0000
 curvature:  -1.17 expect dE=-0.266E-04 dE for cont linesearch -0.349E-06
 trial: gam= 0.12417 g(F)=  0.148E-04 g(S)=  0.785E-05 ort =-0.896E-05 (trialstep = 0.127E+01)
 search vector abs. value=  0.246E-04
 bond charge predicted
       N       E                     dE             d eps       ncg     rms          rms(c)
DAV:   1    -0.408588885383E+02   -0.36167E-03   -0.64101E-03  5632   0.191E+00    0.237E-01
DAV:   2    -0.408602577801E+02   -0.13692E-02   -0.10093E-02  5672   0.107E+00    0.384E-01
DAV:   3    -0.408585429968E+02    0.17148E-02   -0.43793E-03  5656   0.726E-01    0.388E-02
DAV:   4    -0.408585381902E+02    0.48067E-05   -0.10347E-04  5588   0.671E-02    0.188E-02
DAV:   5    -0.408585343240E+02    0.38661E-05   -0.56228E-06  6328   0.221E-02    0.338E-03
DAV:   6    -0.408585337198E+02    0.60421E-06   -0.56560E-07  5768   0.709E-03    0.122E-03
DAV:   7    -0.408585336822E+02    0.37582E-07   -0.96319E-08  5576   0.351E-03    0.521E-04
DAV:   8    -0.408585336449E+02    0.37366E-07   -0.10080E-08  2704   0.114E-03    0.812E-05
DAV:   9    -0.408585336342E+02    0.10643E-07   -0.12687E-09  2624   0.337E-04    0.341E-05
DAV:  10    -0.408585336330E+02    0.12205E-08   -0.33187E-10  2612   0.146E-04
  15 F= -.40858534E+02 E0= -.40858175E+02  d E =-.675446E-05  mag=     0.0000
 trial-energy change:   -0.000007  1 .order   -0.000006   -0.000027    0.000016
 step:   0.8426(harm=  0.7971)  dis= 0.00027  next Energy=   -40.858536 (dE=-0.943E-05)
 bond charge predicted
       N       E                     dE             d eps       ncg     rms          rms(c)
DAV:   1    -0.408585771194E+02   -0.43485E-04   -0.72428E-04  5620   0.642E-01    0.795E-02
DAV:   2    -0.408587277256E+02   -0.15061E-03   -0.11460E-03  5672   0.360E-01    0.130E-01
DAV:   3    -0.408585363128E+02    0.19141E-03   -0.49488E-04  5656   0.244E-01    0.133E-02
DAV:   4    -0.408585361569E+02    0.15593E-06   -0.11646E-05  5600   0.227E-02    0.646E-03
DAV:   5    -0.408585360851E+02    0.71739E-07   -0.68639E-07  6304   0.786E-03    0.107E-03
DAV:   6    -0.408585362186E+02   -0.13343E-06   -0.75832E-08  5032   0.265E-03    0.492E-04
DAV:   7    -0.408585362309E+02   -0.12327E-07   -0.10899E-08  2672   0.129E-03    0.157E-04
DAV:   8    -0.408585362427E+02   -0.11831E-07   -0.22326E-09  2592   0.473E-04    0.371E-05
DAV:   9    -0.408585362465E+02   -0.37799E-08   -0.40174E-10  2584   0.177E-04
  16 F= -.40858536E+02 E0= -.40858167E+02  d E =-.936794E-05  mag=    -0.0000
 curvature:  -0.45 expect dE=-0.105E-05 dE for cont linesearch -0.204E-07
 trial: gam= 0.09170 g(F)=  0.133E-05 g(S)=  0.995E-06 ort =-0.106E-05 (trialstep = 0.118E+01)
 search vector abs. value=  0.234E-05
 reached required accuracy - stopping structural energy minimisation
 writing wavefunctions
