   2   2   0   0
  0.1250688E+02  0.4221398E-09  0.4221398E-09  0.4221398E-09  0.5000000E-15
  1.000000000000000E-004
  CAR 
 unknown system                          
     31.73124715    -59.10531699  301      8.67464313      1.00000000
    -59.105  0.0000E+00  0.0000E+00  0.0000E+00  0.0000E+00
    -58.803  0.0000E+00  0.0000E+00  0.0000E+00  0.0000E+00
    -58.500  0.0000E+00  0.0000E+00  0.0000E+00  0.0000E+00
    -58.197  0.0000E+00  0.0000E+00  0.0000E+00  0.0000E+00
    -57.894  0.0000E+00  0.0000E+00  0.0000E+00  0.0000E+00
    -57.591  0.0000E+00  0.0000E+00  0.0000E+00  0.0000E+00
    -57.289  0.0000E+00  0.0000E+00  0.0000E+00  0.0000E+00
    -56.986  0.0000E+00  0.0000E+00  0.0000E+00  0.0000E+00
    -56.683  0.0000E+00  0.0000E+00  0.0000E+00  0.0000E+00
    -56.380  0.0000E+00  0.0000E+00  0.0000E+00  0.0000E+00
    -56.077  0.0000E+00  0.0000E+00  0.0000E+00  0.0000E+00
    -55.775  0.0000E+00  0.0000E+00  0.0000E+00  0.0000E+00
    -55.472  0.0000E+00  0.0000E+00  0.0000E+00  0.0000E+00
    -55.169  0.0000E+00  0.0000E+00  0.0000E+00  0.0000E+00
    -54.866  0.0000E+00  0.0000E+00  0.1000E+01  0.1000E+01
    -54.563  0.0000E+00  0.0000E+00  0.3000E+01  0.3000E+01
    -54.261  0.0000E+00  0.0000E+00  0.3000E+01  0.3000E+01
    -53.958  0.0000E+00  0.0000E+00  0.3000E+01  0.3000E+01
    -53.655  0.0000E+00  0.0000E+00  0.3000E+01  0.3000E+01
    -53.352  0.0000E+00  0.0000E+00  0.3000E+01  0.3000E+01
    -53.050  0.0000E+00  0.0000E+00  0.3000E+01  0.3000E+01
    -52.747  0.0000E+00  0.0000E+00  0.3000E+01  0.3000E+01
    -52.444  0.0000E+00  0.0000E+00  0.3000E+01  0.3000E+01
    -52.141  0.0000E+00  0.0000E+00  0.3000E+01  0.3000E+01
    -51.838  0.0000E+00  0.0000E+00  0.3000E+01  0.3000E+01
    -51.536  0.0000E+00  0.0000E+00  0.3000E+01  0.3000E+01
    -51.233  0.0000E+00  0.0000E+00  0.3000E+01  0.3000E+01
    -50.930  0.0000E+00  0.0000E+00  0.3000E+01  0.3000E+01
    -50.627  0.0000E+00  0.0000E+00  0.3000E+01  0.3000E+01
    -50.324  0.0000E+00  0.0000E+00  0.3000E+01  0.3000E+01
    -50.022  0.0000E+00  0.0000E+00  0.3000E+01  0.3000E+01
    -49.719  0.0000E+00  0.0000E+00  0.3000E+01  0.3000E+01
    -49.416  0.0000E+00  0.0000E+00  0.3000E+01  0.3000E+01
    -49.113  0.0000E+00  0.0000E+00  0.3000E+01  0.3000E+01
    -48.811  0.0000E+00  0.0000E+00  0.3000E+01  0.3000E+01
    -48.508  0.0000E+00  0.0000E+00  0.3000E+01  0.3000E+01
    -48.205  0.0000E+00  0.0000E+00  0.3000E+01  0.3000E+01
    -47.902  0.0000E+00  0.0000E+00  0.3000E+01  0.3000E+01
    -47.599  0.0000E+00  0.0000E+00  0.3000E+01  0.3000E+01
    -47.297  0.0000E+00  0.0000E+00  0.3000E+01  0.3000E+01
    -46.994  0.0000E+00  0.0000E+00  0.3000E+01  0.3000E+01
    -46.691  0.0000E+00  0.0000E+00  0.3000E+01  0.3000E+01
    -46.388  0.0000E+00  0.0000E+00  0.3000E+01  0.3000E+01
    -46.085  0.0000E+00  0.0000E+00  0.3000E+01  0.3000E+01
    -45.783  0.0000E+00  0.0000E+00  0.3000E+01  0.3000E+01
    -45.480  0.0000E+00  0.0000E+00  0.3000E+01  0.3000E+01
    -45.177  0.0000E+00  0.0000E+00  0.3000E+01  0.3000E+01
    -44.874  0.0000E+00  0.0000E+00  0.3000E+01  0.3000E+01
    -44.571  0.0000E+00  0.0000E+00  0.3000E+01  0.3000E+01
    -44.269  0.0000E+00  0.0000E+00  0.3000E+01  0.3000E+01
    -43.966  0.0000E+00  0.0000E+00  0.3000E+01  0.3000E+01
    -43.663  0.0000E+00  0.0000E+00  0.3000E+01  0.3000E+01
    -43.360  0.0000E+00  0.0000E+00  0.3000E+01  0.3000E+01
    -43.058  0.0000E+00  0.0000E+00  0.3000E+01  0.3000E+01
    -42.755  0.0000E+00  0.0000E+00  0.3000E+01  0.3000E+01
    -42.452  0.0000E+00  0.0000E+00  0.3000E+01  0.3000E+01
    -42.149  0.0000E+00  0.0000E+00  0.3000E+01  0.3000E+01
    -41.846  0.0000E+00  0.0000E+00  0.3000E+01  0.3000E+01
    -41.544  0.0000E+00  0.0000E+00  0.3000E+01  0.3000E+01
    -41.241  0.0000E+00  0.0000E+00  0.3000E+01  0.3000E+01
    -40.938  0.0000E+00  0.0000E+00  0.3000E+01  0.3000E+01
    -40.635  0.0000E+00  0.0000E+00  0.3000E+01  0.3000E+01
    -40.332  0.0000E+00  0.0000E+00  0.3000E+01  0.3000E+01
    -40.030  0.0000E+00  0.0000E+00  0.3000E+01  0.3000E+01
    -39.727  0.0000E+00  0.0000E+00  0.3000E+01  0.3000E+01
    -39.424  0.0000E+00  0.0000E+00  0.3000E+01  0.3000E+01
    -39.121  0.0000E+00  0.0000E+00  0.3000E+01  0.3000E+01
    -38.818  0.0000E+00  0.0000E+00  0.3000E+01  0.3000E+01
    -38.516  0.0000E+00  0.0000E+00  0.3000E+01  0.3000E+01
    -38.213  0.0000E+00  0.0000E+00  0.3000E+01  0.3000E+01
    -37.910  0.0000E+00  0.0000E+00  0.3000E+01  0.3000E+01
    -37.607  0.0000E+00  0.0000E+00  0.3000E+01  0.3000E+01
    -37.305  0.0000E+00  0.0000E+00  0.3000E+01  0.3000E+01
    -37.002  0.0000E+00  0.0000E+00  0.3000E+01  0.3000E+01
    -36.699  0.0000E+00  0.0000E+00  0.3000E+01  0.3000E+01
    -36.396  0.0000E+00  0.0000E+00  0.3000E+01  0.3000E+01
    -36.093  0.0000E+00  0.0000E+00  0.3000E+01  0.3000E+01
    -35.791  0.0000E+00  0.0000E+00  0.3000E+01  0.3000E+01
    -35.488  0.0000E+00  0.0000E+00  0.3000E+01  0.3000E+01
    -35.185  0.0000E+00  0.0000E+00  0.3000E+01  0.3000E+01
    -34.882  0.0000E+00  0.0000E+00  0.3000E+01  0.3000E+01
    -34.579  0.0000E+00  0.0000E+00  0.3000E+01  0.3000E+01
    -34.277  0.0000E+00  0.0000E+00  0.3000E+01  0.3000E+01
    -33.974  0.0000E+00  0.0000E+00  0.3000E+01  0.3000E+01
    -33.671  0.0000E+00  0.0000E+00  0.3000E+01  0.3000E+01
    -33.368  0.0000E+00  0.0000E+00  0.3000E+01  0.3000E+01
    -33.066  0.0000E+00  0.0000E+00  0.3000E+01  0.3000E+01
    -32.763  0.0000E+00  0.0000E+00  0.3000E+01  0.3000E+01
    -32.460  0.0000E+00  0.0000E+00  0.3000E+01  0.3000E+01
    -32.157  0.0000E+00  0.0000E+00  0.3000E+01  0.3000E+01
    -31.854  0.0000E+00  0.0000E+00  0.3000E+01  0.3000E+01
    -31.552  0.0000E+00  0.0000E+00  0.3000E+01  0.3000E+01
    -31.249  0.0000E+00  0.0000E+00  0.3000E+01  0.3000E+01
    -30.946  0.0000E+00  0.0000E+00  0.3000E+01  0.3000E+01
    -30.643  0.0000E+00  0.0000E+00  0.3000E+01  0.3000E+01
    -30.340  0.0000E+00  0.0000E+00  0.3000E+01  0.3000E+01
    -30.038  0.0000E+00  0.0000E+00  0.3000E+01  0.3000E+01
    -29.735  0.0000E+00  0.0000E+00  0.3000E+01  0.3000E+01
    -29.432  0.0000E+00  0.0000E+00  0.3000E+01  0.3000E+01
    -29.129  0.0000E+00  0.0000E+00  0.3000E+01  0.3000E+01
    -28.826  0.0000E+00  0.0000E+00  0.3000E+01  0.3000E+01
    -28.524  0.0000E+00  0.0000E+00  0.3000E+01  0.3000E+01
    -28.221  0.0000E+00  0.0000E+00  0.3000E+01  0.3000E+01
    -27.918  0.0000E+00  0.0000E+00  0.3000E+01  0.3000E+01
    -27.615  0.0000E+00  0.0000E+00  0.3000E+01  0.3000E+01
    -27.313  0.0000E+00  0.0000E+00  0.3000E+01  0.3000E+01
    -27.010  0.0000E+00  0.0000E+00  0.3000E+01  0.3000E+01
    -26.707  0.0000E+00  0.0000E+00  0.3000E+01  0.3000E+01
    -26.404  0.0000E+00  0.0000E+00  0.3000E+01  0.3000E+01
    -26.101  0.0000E+00  0.0000E+00  0.3000E+01  0.3000E+01
    -25.799  0.0000E+00  0.0000E+00  0.3000E+01  0.3000E+01
    -25.496  0.0000E+00  0.0000E+00  0.3000E+01  0.3000E+01
    -25.193  0.0000E+00  0.0000E+00  0.3000E+01  0.3000E+01
    -24.890  0.0000E+00  0.0000E+00  0.3000E+01  0.3000E+01
    -24.587  0.0000E+00  0.0000E+00  0.3000E+01  0.3000E+01
    -24.285  0.0000E+00  0.0000E+00  0.3000E+01  0.3000E+01
    -23.982  0.0000E+00  0.0000E+00  0.3000E+01  0.3000E+01
    -23.679  0.0000E+00  0.0000E+00  0.3000E+01  0.3000E+01
    -23.376  0.0000E+00  0.0000E+00  0.3000E+01  0.3000E+01
    -23.073  0.0000E+00  0.0000E+00  0.3000E+01  0.3000E+01
    -22.771  0.0000E+00  0.0000E+00  0.3000E+01  0.3000E+01
    -22.468  0.0000E+00  0.0000E+00  0.3000E+01  0.3000E+01
    -22.165  0.0000E+00  0.0000E+00  0.3000E+01  0.3000E+01
    -21.862  0.0000E+00  0.0000E+00  0.3000E+01  0.3000E+01
    -21.560  0.0000E+00  0.0000E+00  0.3000E+01  0.3000E+01
    -21.257  0.0000E+00  0.0000E+00  0.3000E+01  0.3000E+01
    -20.954  0.0000E+00  0.0000E+00  0.3000E+01  0.3000E+01
    -20.651  0.0000E+00  0.0000E+00  0.3000E+01  0.3000E+01
    -20.348  0.0000E+00  0.0000E+00  0.3000E+01  0.3000E+01
    -20.046  0.0000E+00  0.0000E+00  0.3000E+01  0.3000E+01
    -19.743  0.0000E+00  0.0000E+00  0.3000E+01  0.3000E+01
    -19.440  0.0000E+00  0.0000E+00  0.3000E+01  0.3000E+01
    -19.137  0.0000E+00  0.0000E+00  0.3000E+01  0.3000E+01
    -18.834  0.0000E+00  0.0000E+00  0.3000E+01  0.3000E+01
    -18.532  0.0000E+00  0.0000E+00  0.3000E+01  0.3000E+01
    -18.229  0.0000E+00  0.0000E+00  0.3000E+01  0.3000E+01
    -17.926  0.0000E+00  0.0000E+00  0.3000E+01  0.3000E+01
    -17.623  0.0000E+00  0.0000E+00  0.3000E+01  0.3000E+01
    -17.320  0.0000E+00  0.0000E+00  0.3000E+01  0.3000E+01
    -17.018  0.0000E+00  0.0000E+00  0.3000E+01  0.3000E+01
    -16.715  0.0000E+00  0.0000E+00  0.3000E+01  0.3000E+01
    -16.412  0.0000E+00  0.0000E+00  0.3000E+01  0.3000E+01
    -16.109  0.0000E+00  0.0000E+00  0.3000E+01  0.3000E+01
    -15.807  0.0000E+00  0.0000E+00  0.3000E+01  0.3000E+01
    -15.504  0.0000E+00  0.0000E+00  0.3000E+01  0.3000E+01
    -15.201  0.0000E+00  0.0000E+00  0.3000E+01  0.3000E+01
    -14.898  0.0000E+00  0.0000E+00  0.3000E+01  0.3000E+01
    -14.595  0.0000E+00  0.0000E+00  0.3000E+01  0.3000E+01
    -14.293  0.0000E+00  0.0000E+00  0.3000E+01  0.3000E+01
    -13.990  0.0000E+00  0.0000E+00  0.3000E+01  0.3000E+01
    -13.687  0.0000E+00  0.0000E+00  0.3000E+01  0.3000E+01
    -13.384  0.0000E+00  0.0000E+00  0.3000E+01  0.3000E+01
    -13.081  0.0000E+00  0.0000E+00  0.3000E+01  0.3000E+01
    -12.779  0.0000E+00  0.0000E+00  0.3000E+01  0.3000E+01
    -12.476  0.0000E+00  0.0000E+00  0.3000E+01  0.3000E+01
    -12.173  0.0000E+00  0.0000E+00  0.3000E+01  0.3000E+01
    -11.870  0.0000E+00  0.0000E+00  0.3000E+01  0.3000E+01
    -11.568  0.0000E+00  0.0000E+00  0.3000E+01  0.3000E+01
    -11.265  0.0000E+00  0.0000E+00  0.3000E+01  0.3000E+01
    -10.962  0.0000E+00  0.0000E+00  0.3000E+01  0.3000E+01
    -10.659  0.0000E+00  0.0000E+00  0.3000E+01  0.3000E+01
    -10.356  0.0000E+00  0.0000E+00  0.3000E+01  0.3000E+01
    -10.054  0.0000E+00  0.0000E+00  0.3000E+01  0.3000E+01
     -9.751  0.0000E+00  0.0000E+00  0.3000E+01  0.3000E+01
     -9.448  0.0000E+00  0.0000E+00  0.3000E+01  0.3000E+01
     -9.145  0.0000E+00  0.0000E+00  0.3000E+01  0.3000E+01
     -8.842  0.0000E+00  0.0000E+00  0.3000E+01  0.3000E+01
     -8.540  0.0000E+00  0.0000E+00  0.3000E+01  0.3000E+01
     -8.237  0.0000E+00  0.0000E+00  0.3000E+01  0.3000E+01
     -7.934  0.0000E+00  0.0000E+00  0.3000E+01  0.3000E+01
     -7.631  0.0000E+00  0.0000E+00  0.3000E+01  0.3000E+01
     -7.328  0.0000E+00  0.0000E+00  0.3000E+01  0.3000E+01
     -7.026  0.0000E+00  0.0000E+00  0.3000E+01  0.3000E+01
     -6.723  0.0000E+00  0.0000E+00  0.3000E+01  0.3000E+01
     -6.420  0.0000E+00  0.0000E+00  0.3000E+01  0.3000E+01
     -6.117  0.0000E+00  0.0000E+00  0.3000E+01  0.3000E+01
     -5.815  0.0000E+00  0.0000E+00  0.3000E+01  0.3000E+01
     -5.512  0.0000E+00  0.0000E+00  0.3000E+01  0.3000E+01
     -5.209  0.0000E+00  0.0000E+00  0.3000E+01  0.3000E+01
     -4.906  0.0000E+00  0.0000E+00  0.3000E+01  0.3000E+01
     -4.603  0.0000E+00  0.0000E+00  0.3000E+01  0.3000E+01
     -4.301  0.0000E+00  0.0000E+00  0.3000E+01  0.3000E+01
     -3.998  0.0000E+00  0.0000E+00  0.3000E+01  0.3000E+01
     -3.695  0.0000E+00  0.0000E+00  0.3000E+01  0.3000E+01
     -3.392  0.0000E+00  0.0000E+00  0.3000E+01  0.3000E+01
     -3.089  0.0000E+00  0.0000E+00  0.3000E+01  0.3000E+01
     -2.787  0.0000E+00  0.0000E+00  0.3000E+01  0.3000E+01
     -2.484  0.0000E+00  0.0000E+00  0.3000E+01  0.3000E+01
     -2.181  0.8184E-03  0.8184E-03  0.3000E+01  0.3000E+01
     -1.878  0.4293E-01  0.4293E-01  0.3006E+01  0.3006E+01
     -1.575  0.6483E-01  0.6483E-01  0.3023E+01  0.3023E+01
     -1.273  0.8223E-01  0.8223E-01  0.3045E+01  0.3045E+01
     -0.970  0.1038E+00  0.1038E+00  0.3073E+01  0.3073E+01
     -0.667  0.1245E+00  0.1245E+00  0.3108E+01  0.3108E+01
     -0.364  0.1520E+00  0.1520E+00  0.3149E+01  0.3149E+01
     -0.062  0.1433E+00  0.1433E+00  0.3193E+01  0.3193E+01
      0.241  0.1493E+00  0.1493E+00  0.3237E+01  0.3237E+01
      0.544  0.1518E+00  0.1518E+00  0.3283E+01  0.3283E+01
      0.847  0.1511E+00  0.1511E+00  0.3328E+01  0.3328E+01
      1.150  0.1550E+00  0.1550E+00  0.3375E+01  0.3375E+01
      1.452  0.1599E+00  0.1599E+00  0.3422E+01  0.3422E+01
      1.755  0.1800E+00  0.1800E+00  0.3473E+01  0.3473E+01
      2.058  0.1984E+00  0.1984E+00  0.3531E+01  0.3531E+01
      2.361  0.2154E+00  0.2154E+00  0.3594E+01  0.3594E+01
      2.664  0.2376E+00  0.2376E+00  0.3662E+01  0.3662E+01
      2.966  0.2869E+00  0.2869E+00  0.3739E+01  0.3739E+01
      3.269  0.3551E+00  0.3551E+00  0.3841E+01  0.3841E+01
      3.572  0.3639E+00  0.3639E+00  0.3952E+01  0.3952E+01
      3.875  0.2418E+00  0.2418E+00  0.4044E+01  0.4044E+01
      4.177  0.2313E+00  0.2313E+00  0.4115E+01  0.4115E+01
      4.480  0.3163E+00  0.3163E+00  0.4190E+01  0.4190E+01
      4.783  0.4291E+00  0.4291E+00  0.4313E+01  0.4313E+01
      5.086  0.8833E+00  0.8833E+00  0.4494E+01  0.4494E+01
      5.389  0.1034E+01  0.1034E+01  0.4847E+01  0.4847E+01
      5.691  0.7834E+00  0.7834E+00  0.5064E+01  0.5064E+01
      5.994  0.1291E+01  0.1291E+01  0.5533E+01  0.5533E+01
      6.297  0.3311E+01  0.3311E+01  0.6087E+01  0.6087E+01
      6.600  0.2239E+01  0.2239E+01  0.6754E+01  0.6754E+01
      6.903  0.1681E+01  0.1681E+01  0.7334E+01  0.7334E+01
      7.205  0.6024E+00  0.6024E+00  0.8001E+01  0.8001E+01
      7.508  0.1274E+01  0.1274E+01  0.8432E+01  0.8432E+01
      7.811  0.1167E+01  0.1167E+01  0.8755E+01  0.8755E+01
      8.114  0.1150E+01  0.1150E+01  0.9121E+01  0.9121E+01
      8.417  0.4255E+00  0.4255E+00  0.9398E+01  0.9398E+01
      8.719  0.4222E+00  0.4222E+00  0.9518E+01  0.9518E+01
      9.022  0.5196E+00  0.5196E+00  0.9668E+01  0.9668E+01
      9.325  0.4324E+00  0.4324E+00  0.9825E+01  0.9825E+01
      9.628  0.2433E+00  0.2433E+00  0.9927E+01  0.9927E+01
      9.930  0.1405E+00  0.1405E+00  0.9978E+01  0.9978E+01
     10.233  0.2572E+00  0.2572E+00  0.1004E+02  0.1004E+02
     10.536  0.3380E+00  0.3380E+00  0.1013E+02  0.1013E+02
     10.839  0.4225E+00  0.4225E+00  0.1024E+02  0.1024E+02
     11.142  0.3199E+00  0.3199E+00  0.1036E+02  0.1036E+02
     11.444  0.2985E+00  0.2985E+00  0.1045E+02  0.1045E+02
     11.747  0.3357E+00  0.3357E+00  0.1055E+02  0.1055E+02
     12.050  0.3390E+00  0.3390E+00  0.1065E+02  0.1065E+02
     12.353  0.2831E+00  0.2831E+00  0.1075E+02  0.1075E+02
     12.656  0.2558E+00  0.2558E+00  0.1083E+02  0.1083E+02
     12.958  0.2674E+00  0.2674E+00  0.1091E+02  0.1091E+02
     13.261  0.3094E+00  0.3094E+00  0.1100E+02  0.1100E+02
     13.564  0.4250E+00  0.4250E+00  0.1111E+02  0.1111E+02
     13.867  0.3393E+00  0.3393E+00  0.1122E+02  0.1122E+02
     14.170  0.3861E+00  0.3861E+00  0.1133E+02  0.1133E+02
     14.472  0.4487E+00  0.4487E+00  0.1145E+02  0.1145E+02
     14.775  0.4755E+00  0.4755E+00  0.1159E+02  0.1159E+02
     15.078  0.4884E+00  0.4884E+00  0.1174E+02  0.1174E+02
     15.381  0.4320E+00  0.4320E+00  0.1188E+02  0.1188E+02
     15.683  0.4250E+00  0.4250E+00  0.1201E+02  0.1201E+02
     15.986  0.4312E+00  0.4312E+00  0.1214E+02  0.1214E+02
     16.289  0.3976E+00  0.3976E+00  0.1226E+02  0.1226E+02
     16.592  0.3912E+00  0.3912E+00  0.1238E+02  0.1238E+02
     16.895  0.3979E+00  0.3979E+00  0.1250E+02  0.1250E+02
     17.197  0.4074E+00  0.4074E+00  0.1262E+02  0.1262E+02
     17.500  0.4347E+00  0.4347E+00  0.1275E+02  0.1275E+02
     17.803  0.4403E+00  0.4403E+00  0.1288E+02  0.1288E+02
     18.106  0.4379E+00  0.4379E+00  0.1302E+02  0.1302E+02
     18.409  0.5034E+00  0.5034E+00  0.1316E+02  0.1316E+02
     18.711  0.4870E+00  0.4870E+00  0.1331E+02  0.1331E+02
     19.014  0.4696E+00  0.4696E+00  0.1346E+02  0.1346E+02
     19.317  0.4162E+00  0.4162E+00  0.1359E+02  0.1359E+02
     19.620  0.4196E+00  0.4196E+00  0.1371E+02  0.1371E+02
     19.922  0.4316E+00  0.4316E+00  0.1384E+02  0.1384E+02
     20.225  0.3961E+00  0.3961E+00  0.1397E+02  0.1397E+02
     20.528  0.3834E+00  0.3834E+00  0.1409E+02  0.1409E+02
     20.831  0.3759E+00  0.3759E+00  0.1421E+02  0.1421E+02
     21.134  0.4289E+00  0.4289E+00  0.1433E+02  0.1433E+02
     21.436  0.4326E+00  0.4326E+00  0.1446E+02  0.1446E+02
     21.739  0.4206E+00  0.4206E+00  0.1459E+02  0.1459E+02
     22.042  0.4180E+00  0.4180E+00  0.1471E+02  0.1471E+02
     22.345  0.4279E+00  0.4279E+00  0.1484E+02  0.1484E+02
     22.648  0.5131E+00  0.5131E+00  0.1499E+02  0.1499E+02
     22.950  0.4643E+00  0.4643E+00  0.1513E+02  0.1513E+02
     23.253  0.4610E+00  0.4610E+00  0.1528E+02  0.1528E+02
     23.556  0.4139E+00  0.4139E+00  0.1541E+02  0.1541E+02
     23.859  0.3977E+00  0.3977E+00  0.1554E+02  0.1554E+02
     24.162  0.3337E+00  0.3337E+00  0.1565E+02  0.1565E+02
     24.464  0.2562E+00  0.2562E+00  0.1574E+02  0.1574E+02
     24.767  0.2015E+00  0.2015E+00  0.1580E+02  0.1580E+02
     25.070  0.1651E+00  0.1651E+00  0.1586E+02  0.1586E+02
     25.373  0.1580E+00  0.1580E+00  0.1591E+02  0.1591E+02
     25.675  0.1119E+00  0.1119E+00  0.1595E+02  0.1595E+02
     25.978  0.7368E-01  0.7368E-01  0.1598E+02  0.1598E+02
     26.281  0.2478E-01  0.2478E-01  0.1599E+02  0.1599E+02
     26.584  0.1008E-01  0.1008E-01  0.1600E+02  0.1600E+02
     26.887  0.4978E-02  0.4978E-02  0.1600E+02  0.1600E+02
     27.189  0.1657E-02  0.1657E-02  0.1600E+02  0.1600E+02
     27.492  0.1178E-03  0.1178E-03  0.1600E+02  0.1600E+02
     27.795  0.0000E+00  0.0000E+00  0.1600E+02  0.1600E+02
     28.098  0.0000E+00  0.0000E+00  0.1600E+02  0.1600E+02
     28.401  0.0000E+00  0.0000E+00  0.1600E+02  0.1600E+02
     28.703  0.0000E+00  0.0000E+00  0.1600E+02  0.1600E+02
     29.006  0.0000E+00  0.0000E+00  0.1600E+02  0.1600E+02
     29.309  0.0000E+00  0.0000E+00  0.1600E+02  0.1600E+02
     29.612  0.0000E+00  0.0000E+00  0.1600E+02  0.1600E+02
     29.915  0.0000E+00  0.0000E+00  0.1600E+02  0.1600E+02
     30.217  0.0000E+00  0.0000E+00  0.1600E+02  0.1600E+02
     30.520  0.0000E+00  0.0000E+00  0.1600E+02  0.1600E+02
     30.823  0.0000E+00  0.0000E+00  0.1600E+02  0.1600E+02
     31.126  0.0000E+00  0.0000E+00  0.1600E+02  0.1600E+02
     31.428  0.0000E+00  0.0000E+00  0.1600E+02  0.1600E+02
     31.731  0.0000E+00  0.0000E+00  0.1600E+02  0.1600E+02
