       N       E                     dE             d eps       ncg     rms          rms(c)
DAV:   1     0.111850793769E+03    0.11185E+03   -0.11535E+04  4872   0.123E+03
DAV:   2    -0.939629675189E+01   -0.12125E+03   -0.11598E+03  4528   0.336E+02
DAV:   3    -0.116080323239E+02   -0.22117E+01   -0.22042E+01  5304   0.532E+01
DAV:   4    -0.116388981272E+02   -0.30866E-01   -0.30861E-01  4904   0.596E+00
DAV:   5    -0.116398340823E+02   -0.93596E-03   -0.93595E-03  5448   0.103E+00    0.151E+01
DAV:   6    -0.164961804752E+02   -0.48563E+01   -0.40895E+01  5016   0.115E+02    0.208E+01
DAV:   7    -0.998850334837E+01    0.65077E+01   -0.12596E+01  5176   0.717E+01    0.319E+00
DAV:   8    -0.991493487552E+01    0.73568E-01   -0.76889E-01  5896   0.112E+01    0.136E+00
DAV:   9    -0.989693507671E+01    0.18000E-01   -0.10239E-01  4608   0.505E+00    0.663E-01
DAV:  10    -0.989456991006E+01    0.23652E-02   -0.11758E-02  5416   0.167E+00    0.211E-01
DAV:  11    -0.989489922582E+01   -0.32932E-03   -0.17178E-03  6152   0.524E-01    0.183E-01
DAV:  12    -0.989455936391E+01    0.33986E-03   -0.60917E-04  5576   0.305E-01    0.628E-02
DAV:  13    -0.989451504886E+01    0.44315E-04   -0.15970E-04  6008   0.145E-01    0.867E-03
DAV:  14    -0.989451674221E+01   -0.16933E-05   -0.98769E-06  5880   0.330E-02    0.108E-02
DAV:  15    -0.989451517371E+01    0.15685E-05   -0.14441E-06  5872   0.113E-02    0.526E-03
DAV:  16    -0.989451468429E+01    0.48941E-06   -0.46975E-07  5752   0.947E-03    0.137E-03
DAV:  17    -0.989451460953E+01    0.74761E-07   -0.88202E-08  5624   0.358E-03    0.328E-04
DAV:  18    -0.989451460840E+01    0.11319E-08   -0.33217E-09  2312   0.648E-04
   1 F= -.98945146E+01 E0= -.98947532E+01  d E =-.989451E+01  mag=    -0.0000
       N       E                     dE             d eps       ncg     rms          rms(c)
DAV:   1    -0.567297557026E+02   -0.46835E+02   -0.58602E+02  4160   0.467E+02    0.517E+01
DAV:   2    -0.267970787677E+02    0.29933E+02   -0.24510E+02  5152   0.207E+02    0.346E+01
DAV:   3    -0.174338458811E+02    0.93632E+01   -0.93334E+01  4432   0.147E+02    0.232E+01
DAV:   4    -0.106441037481E+02    0.67897E+01   -0.19323E+01  4656   0.810E+01    0.370E+00
DAV:   5    -0.105770336852E+02    0.67070E-01   -0.30458E+00  4352   0.282E+01    0.628E+00
DAV:   6    -0.101810305880E+02    0.39600E+00   -0.11878E+00  5328   0.153E+01    0.146E+00
DAV:   7    -0.101688784477E+02    0.12152E-01   -0.27766E-02  4464   0.132E+00    0.995E-01
DAV:   8    -0.101594293508E+02    0.94491E-02   -0.15805E-02  5360   0.169E+00    0.196E-01
DAV:   9    -0.101590499381E+02    0.37941E-03   -0.15877E-03  4544   0.506E-01    0.475E-02
DAV:  10    -0.101590416732E+02    0.82649E-05   -0.71267E-05  5520   0.117E-01    0.598E-03
DAV:  11    -0.101590418843E+02   -0.21113E-06   -0.26037E-06  4632   0.155E-02    0.160E-03
DAV:  12    -0.101590420212E+02   -0.13681E-06   -0.39621E-07  4800   0.697E-03    0.582E-04
DAV:  13    -0.101590419803E+02    0.40851E-07   -0.41489E-08  4456   0.197E-03    0.153E-04
DAV:  14    -0.101590419808E+02   -0.44929E-09   -0.16531E-09  2408   0.396E-04
   2 F= -.10159042E+02 E0= -.10159243E+02  d E =-.264527E+00  mag=    -0.0000
       N       E                     dE             d eps       ncg     rms          rms(c)
DAV:   1    -0.223359996202E+02   -0.12177E+02   -0.10147E+02  4160   0.149E+02    0.370E+01
DAV:   2    -0.400883284718E+02   -0.17752E+02   -0.20387E+02  4352   0.262E+02    0.344E+01
DAV:   3    -0.126251093866E+02    0.27463E+02   -0.57358E+01  4896   0.107E+02    0.112E+01
DAV:   4    -0.118533142241E+02    0.77180E+00   -0.68728E-01  5168   0.111E+01    0.898E+00
DAV:   5    -0.104344572265E+02    0.14189E+01   -0.25840E+00  5280   0.157E+01    0.327E+00
DAV:   6    -0.103713742756E+02    0.63083E-01   -0.79108E-01  4672   0.124E+01    0.191E+00
DAV:   7    -0.103478931661E+02    0.23481E-01   -0.42815E-01  5472   0.693E+00    0.174E+00
DAV:   8    -0.103103246210E+02    0.37569E-01   -0.74062E-02  5168   0.373E+00    0.350E-01
DAV:   9    -0.103096989133E+02    0.62571E-03   -0.16949E-03  4832   0.363E-01    0.225E-01
DAV:  10    -0.103092668777E+02    0.43204E-03   -0.11110E-03  5264   0.449E-01    0.184E-02
DAV:  11    -0.103092800738E+02   -0.13196E-04   -0.66447E-05  4880   0.706E-02    0.379E-02
DAV:  12    -0.103092670795E+02    0.12994E-04   -0.43996E-05  5304   0.926E-02    0.717E-03
DAV:  13    -0.103092669914E+02    0.88081E-07   -0.13069E-06  4464   0.956E-03    0.498E-03
DAV:  14    -0.103092669465E+02    0.44845E-07   -0.53771E-07  5616   0.853E-03    0.209E-04
DAV:  15    -0.103092669632E+02   -0.16659E-07   -0.32746E-08  4320   0.191E-03    0.860E-04
DAV:  16    -0.103092669474E+02    0.15773E-07   -0.58560E-09  2296   0.101E-03    0.394E-04
DAV:  17    -0.103092669394E+02    0.80449E-08   -0.16140E-09  2240   0.359E-04
   3 F= -.10309267E+02 E0= -.10309191E+02  d E =-.414752E+00  mag=     0.0000
       N       E                     dE             d eps       ncg     rms          rms(c)
DAV:   1    -0.116096343938E+02   -0.13004E+01   -0.16634E+01  4880   0.495E+01    0.120E+01
DAV:   2    -0.142802566338E+02   -0.26706E+01   -0.27109E+01  4704   0.791E+01    0.163E+01
DAV:   3    -0.104144279854E+02    0.38658E+01   -0.75633E+00  4720   0.535E+01    0.204E+00
DAV:   4    -0.103823448065E+02    0.32083E-01   -0.48255E-01  5968   0.841E+00    0.206E+00
DAV:   5    -0.103495909634E+02    0.32754E-01   -0.17328E-01  5056   0.605E+00    0.488E-01
DAV:   6    -0.103466220472E+02    0.29689E-02   -0.94516E-03  5504   0.137E+00    0.642E-02
DAV:   7    -0.103466613109E+02   -0.39264E-04   -0.53761E-04  5936   0.261E-01    0.632E-02
DAV:   8    -0.103466226552E+02    0.38656E-04   -0.10672E-04  5368   0.153E-01    0.771E-03
DAV:   9    -0.103466212078E+02    0.14474E-05   -0.44597E-06  5760   0.267E-02    0.211E-03
DAV:  10    -0.103466211452E+02    0.62624E-07   -0.12737E-07  4784   0.398E-03    0.833E-04
DAV:  11    -0.103466211115E+02    0.33639E-07   -0.22005E-08  2760   0.184E-03    0.125E-04
DAV:  12    -0.103466211126E+02   -0.10045E-08   -0.21749E-09  2280   0.517E-04
   4 F= -.10346621E+02 E0= -.10346548E+02  d E =-.373542E-01  mag=    -0.0000
       N       E                     dE             d eps       ncg     rms          rms(c)
DAV:   1    -0.103467684847E+02   -0.14737E-03   -0.19109E-03  4752   0.568E-01    0.120E-01
DAV:   2    -0.103470531331E+02   -0.28465E-03   -0.28147E-03  4848   0.794E-01    0.199E-01
DAV:   3    -0.103466342649E+02    0.41887E-03   -0.12853E-03  4608   0.563E-01    0.249E-02
DAV:   4    -0.103466256746E+02    0.85903E-05   -0.24997E-05  4800   0.447E-02    0.420E-03
DAV:   5    -0.103466255351E+02    0.13952E-06   -0.89665E-07  4960   0.134E-02    0.112E-03
DAV:   6    -0.103466254674E+02    0.67686E-07   -0.59686E-08  5240   0.307E-03    0.373E-04
DAV:   7    -0.103466254562E+02    0.11224E-07   -0.54286E-09  2288   0.938E-04    0.192E-04
DAV:   8    -0.103466254527E+02    0.34911E-08   -0.17280E-09  2160   0.671E-04
   5 F= -.10346625E+02 E0= -.10346558E+02  d E =-.373585E-01  mag=    -0.0000
       N       E                     dE             d eps       ncg     rms          rms(c)
DAV:   1    -0.103706955825E+02   -0.24070E-01   -0.19956E-01  4160   0.752E+00    0.163E+00
DAV:   2    -0.104333246281E+02   -0.62629E-01   -0.55789E-01  4560   0.116E+01    0.293E+00
DAV:   3    -0.103475073620E+02    0.85817E-01   -0.26411E-01  4624   0.788E+00    0.268E-01
DAV:   4    -0.103467884509E+02    0.71891E-03   -0.22943E-03  4688   0.611E-01    0.485E-02
DAV:   5    -0.103467497751E+02    0.38676E-04   -0.64694E-05  5104   0.775E-02    0.181E-02
DAV:   6    -0.103467458521E+02    0.39231E-05   -0.80255E-06  4736   0.251E-02    0.290E-03
DAV:   7    -0.103467459531E+02   -0.10099E-06   -0.72598E-07  5696   0.105E-02    0.166E-03
DAV:   8    -0.103467460392E+02   -0.86176E-07   -0.43809E-08  4448   0.254E-03    0.385E-04
DAV:   9    -0.103467460477E+02   -0.84642E-08   -0.60313E-09  2304   0.831E-04
   6 F= -.10346746E+02 E0= -.10346714E+02  d E =-.120595E-03  mag=     0.0000
       N       E                     dE             d eps       ncg     rms          rms(c)
DAV:   1    -0.103494827338E+02   -0.27367E-02   -0.21651E-02  4160   0.246E+00    0.566E-01
DAV:   2    -0.103572829664E+02   -0.78002E-02   -0.66975E-02  4560   0.406E+00    0.973E-01
DAV:   3    -0.103468454737E+02    0.10437E-01   -0.31107E-02  4624   0.276E+00    0.606E-02
DAV:   4    -0.103467955279E+02    0.49946E-04   -0.33695E-04  4736   0.148E-01    0.362E-02
DAV:   5    -0.103467840115E+02    0.11516E-04   -0.38724E-05  4960   0.847E-02    0.560E-03
DAV:   6    -0.103467833856E+02    0.62590E-06   -0.10992E-06  4848   0.117E-02    0.742E-04
DAV:   7    -0.103467833338E+02    0.51766E-07   -0.41662E-08  4768   0.196E-03    0.388E-04
DAV:   8    -0.103467832891E+02    0.44648E-07   -0.30713E-09  2384   0.594E-04    0.565E-05
DAV:   9    -0.103467832889E+02    0.23192E-09   -0.38231E-10  2176   0.200E-04
   7 F= -.10346783E+02 E0= -.10346741E+02  d E =-.157836E-03  mag=     0.0000
