       N       E                     dE             d eps       ncg     rms          rms(c)
DAV:   1    -0.397721131618E+02   -0.39772E+02   -0.91243E-01  3456   0.104E+01    0.119E-01
DAV:   2    -0.397722441204E+02   -0.13096E-03   -0.18302E-03  4672   0.503E-01    0.125E-01
DAV:   3    -0.397722056189E+02    0.38502E-04   -0.69675E-04  4568   0.340E-01    0.665E-02
DAV:   4    -0.397722179265E+02   -0.12308E-04   -0.69996E-05  4072   0.936E-02    0.156E-02
DAV:   5    -0.397722098932E+02    0.80333E-05   -0.93602E-06  4968   0.318E-02    0.211E-03
DAV:   6    -0.397722092570E+02    0.63630E-06   -0.43513E-07  3912   0.524E-03    0.518E-04
DAV:   7    -0.397722094607E+02   -0.20378E-06   -0.23503E-08  3168   0.103E-03    0.182E-04
DAV:   8    -0.397722096693E+02   -0.20861E-06   -0.22106E-09  1880   0.430E-04    0.759E-05
DAV:   9    -0.397722096332E+02    0.36142E-07   -0.76832E-10  1800   0.322E-04    0.187E-05
DAV:  10    -0.397722096239E+02    0.93059E-08   -0.15892E-10  1776   0.117E-04
   1 F= -.39772210E+02 E0= -.39772210E+02  d E =0.000000E+00  mag=     0.0000
