       N       E                     dE             d eps       ncg     rms          rms(c)
DAV:   1     0.387693010106E+03    0.38769E+03   -0.27280E+04  4192   0.134E+03
DAV:   2    -0.164589145856E+02   -0.40415E+03   -0.38724E+03  3556   0.387E+02
DAV:   3    -0.395935427216E+02   -0.23135E+02   -0.21972E+02  4344   0.973E+01
DAV:   4    -0.403060077479E+02   -0.71247E+00   -0.70659E+00  4060   0.175E+01
DAV:   5    -0.403268568570E+02   -0.20849E-01   -0.20831E-01  4224   0.328E+00    0.340E+01
DAV:   6    -0.816620461718E+02   -0.41335E+02   -0.30927E+02  4280   0.246E+02    0.482E+01
DAV:   7    -0.395294253376E+02    0.42133E+02   -0.11581E+02  4196   0.117E+02    0.185E+01
DAV:   8    -0.347931291418E+02    0.47363E+01   -0.15322E+01  4892   0.549E+01    0.349E+00
DAV:   9    -0.348842493962E+02   -0.91120E-01   -0.16813E+00  5064   0.855E+00    0.243E+00
DAV:  10    -0.348680033039E+02    0.16246E-01   -0.21571E-01  4696   0.548E+00    0.778E-01
DAV:  11    -0.348686051571E+02   -0.60185E-03   -0.28551E-02  4636   0.221E+00    0.523E-01
DAV:  12    -0.348674117810E+02    0.11934E-02   -0.20641E-03  4588   0.390E-01    0.331E-01
DAV:  13    -0.348665645689E+02    0.84721E-03   -0.33812E-03  5000   0.706E-01    0.654E-02
DAV:  14    -0.348666838988E+02   -0.11933E-03   -0.41045E-04  4292   0.130E-01    0.936E-02
DAV:  15    -0.348666151709E+02    0.68728E-04   -0.20634E-04  5000   0.168E-01    0.127E-02
DAV:  16    -0.348666208725E+02   -0.57016E-05   -0.16386E-05  3820   0.314E-02    0.142E-02
DAV:  17    -0.348666188707E+02    0.20017E-05   -0.39405E-06  5008   0.215E-02    0.374E-03
DAV:  18    -0.348666186490E+02    0.22174E-06   -0.10608E-06  5092   0.829E-03    0.648E-04
DAV:  19    -0.348666186369E+02    0.12064E-07   -0.43155E-08  3472   0.181E-03    0.190E-04
DAV:  20    -0.348666186291E+02    0.78189E-08   -0.28249E-09  1976   0.390E-04
   1 F= -.34866619E+02 E0= -.34865499E+02  d E =-.348666E+02  mag=     0.0000
       N       E                     dE             d eps       ncg     rms          rms(c)
DAV:   1    -0.270334346533E+03   -0.23547E+03   -0.45529E+03  3456   0.891E+02    0.108E+02
DAV:   2    -0.550727415055E+02    0.21526E+03   -0.11660E+03  3576   0.251E+02    0.259E+01
DAV:   3    -0.747980112833E+02   -0.19725E+02   -0.24213E+02  3768   0.149E+02    0.453E+01
DAV:   4    -0.389548968912E+02    0.35843E+02   -0.11432E+02  4408   0.944E+01    0.473E+00
DAV:   5    -0.384986137062E+02    0.45628E+00   -0.88268E+00  3912   0.269E+01    0.118E+01
DAV:   6    -0.379273641694E+02    0.57125E+00   -0.78117E+00  4824   0.301E+01    0.121E+01
DAV:   7    -0.370600468805E+02    0.86732E+00   -0.14467E+00  4672   0.891E+00    0.403E+00
DAV:   8    -0.369561484665E+02    0.10390E+00   -0.61538E-01  4604   0.683E+00    0.610E-01
DAV:   9    -0.369551885584E+02    0.95991E-03   -0.23394E-02  3884   0.138E+00    0.854E-02
DAV:  10    -0.369550388855E+02    0.14967E-03   -0.10682E-03  3840   0.217E-01    0.207E-02
DAV:  11    -0.369552699294E+02   -0.23104E-03   -0.60184E-04  5396   0.195E-01    0.169E-01
DAV:  12    -0.369550706580E+02    0.19927E-03   -0.26649E-04  4796   0.152E-01    0.574E-02
DAV:  13    -0.369550480309E+02    0.22627E-04   -0.57973E-05  4960   0.570E-02    0.105E-02
DAV:  14    -0.369550470652E+02    0.96567E-06   -0.72843E-06  5196   0.190E-02    0.506E-03
DAV:  15    -0.369550464050E+02    0.66018E-06   -0.10419E-06  4508   0.771E-03    0.245E-04
DAV:  16    -0.369550463682E+02    0.36818E-07   -0.37817E-08  3712   0.112E-03    0.132E-04
DAV:  17    -0.369550463537E+02    0.14481E-07   -0.14064E-09  2020   0.329E-04    0.194E-04
DAV:  18    -0.369550463496E+02    0.40782E-08   -0.52252E-10  2008   0.177E-04
   2 F= -.36955046E+02 E0= -.36955165E+02  d E =-.208843E+01  mag=    -0.0000
       N       E                     dE             d eps       ncg     rms          rms(c)
DAV:   1    -0.188988398967E+03   -0.15203E+03   -0.12766E+03  4448   0.342E+02    0.118E+02
DAV:   2    -0.335582304436E+03   -0.14659E+03   -0.51177E+03  5888   0.435E+02    0.103E+02
DAV:   3    -0.795409286002E+02    0.25604E+03   -0.14659E+03  4752   0.243E+02    0.392E+01
DAV:   4    -0.596999172985E+02    0.19841E+02   -0.13707E+02  4096   0.786E+01    0.257E+01
DAV:   5    -0.424384689450E+02    0.17261E+02   -0.27726E+01  4680   0.550E+01    0.120E+01
DAV:   6    -0.435908092447E+02   -0.11523E+01   -0.33913E+01  4952   0.623E+01    0.269E+01
DAV:   7    -0.399394643450E+02    0.36513E+01   -0.80322E+00  4700   0.236E+01    0.743E+00
DAV:   8    -0.401726580713E+02   -0.23319E+00   -0.31771E-01  4264   0.503E+00    0.916E+00
DAV:   9    -0.399825184633E+02    0.19014E+00   -0.58831E+00  4832   0.241E+01    0.707E+00
DAV:  10    -0.397540144853E+02    0.22850E+00   -0.35449E-01  4172   0.581E+00    0.517E+00
DAV:  11    -0.395281766137E+02    0.22584E+00   -0.41382E-01  4836   0.718E+00    0.151E+00
DAV:  12    -0.395080973685E+02    0.20079E-01   -0.97752E-02  4904   0.287E+00    0.193E-01
DAV:  13    -0.395078640869E+02    0.23328E-03   -0.38959E-03  4120   0.507E-01    0.516E-02
DAV:  14    -0.395084091325E+02   -0.54505E-03   -0.27800E-03  4588   0.490E-01    0.248E-01
DAV:  15    -0.395084091503E+02   -0.17808E-07   -0.48510E-04  3704   0.120E-01    0.255E-01
DAV:  16    -0.395078927464E+02    0.51640E-03   -0.85563E-04  4736   0.333E-01    0.753E-02
DAV:  17    -0.395078731790E+02    0.19567E-04   -0.52167E-05  4032   0.398E-02    0.587E-02
DAV:  18    -0.395078482529E+02    0.24926E-04   -0.21008E-05  5352   0.441E-02    0.297E-02
DAV:  19    -0.395078401531E+02    0.80998E-05   -0.23123E-05  5252   0.459E-02    0.107E-03
DAV:  20    -0.395078405382E+02   -0.38512E-06   -0.12785E-06  3868   0.101E-02    0.424E-03
DAV:  21    -0.395078402309E+02    0.30731E-06   -0.55414E-07  4760   0.857E-03    0.925E-04
DAV:  22    -0.395078403159E+02   -0.85075E-07   -0.83773E-08  3932   0.334E-03    0.833E-04
DAV:  23    -0.395078403011E+02    0.14850E-07   -0.50673E-09  1964   0.553E-04    0.637E-04
DAV:  24    -0.395078402805E+02    0.20604E-07   -0.38897E-09  1956   0.586E-04    0.234E-04
DAV:  25    -0.395078402730E+02    0.74970E-08   -0.30025E-09  1892   0.254E-04
   3 F= -.39507840E+02 E0= -.39507596E+02  d E =-.464122E+01  mag=     0.0000
       N       E                     dE             d eps       ncg     rms          rms(c)
DAV:   1    -0.395635884291E+02   -0.55748E-01   -0.39693E-01  3856   0.752E+00    0.275E+00
DAV:   2    -0.399697691978E+02   -0.40618E+00   -0.25165E+00  4568   0.185E+01    0.680E+00
DAV:   3    -0.395058719776E+02    0.46390E+00   -0.12734E+00  4536   0.148E+01    0.229E-01
DAV:   4    -0.395104316834E+02   -0.45597E-02   -0.58781E-02  3640   0.115E+00    0.409E-01
DAV:   5    -0.395092863838E+02    0.11453E-02   -0.31580E-03  4576   0.608E-01    0.569E-02
DAV:   6    -0.395092744565E+02    0.11927E-04   -0.18511E-04  4744   0.886E-02    0.963E-03
DAV:   7    -0.395092737382E+02    0.71836E-06   -0.92524E-06  3888   0.284E-02    0.111E-03
DAV:   8    -0.395092735670E+02    0.17119E-06   -0.48772E-07  3840   0.483E-03    0.110E-03
DAV:   9    -0.395092733095E+02    0.25748E-06   -0.24677E-08  3436   0.840E-04    0.398E-04
DAV:  10    -0.395092732653E+02    0.44233E-07   -0.36191E-09  2008   0.406E-04    0.123E-04
DAV:  11    -0.395092732547E+02    0.10597E-07   -0.14052E-09  1872   0.237E-04    0.178E-05
DAV:  12    -0.395092732552E+02   -0.49204E-09   -0.24271E-10  1824   0.115E-04
   4 F= -.39509273E+02 E0= -.39509051E+02  d E =-.464265E+01  mag=     0.0000
       N       E                     dE             d eps       ncg     rms          rms(c)
DAV:   1    -0.395138619083E+02   -0.45887E-02   -0.33563E-02  3872   0.219E+00    0.789E-01
DAV:   2    -0.395479125488E+02   -0.34051E-01   -0.20724E-01  4592   0.533E+00    0.204E+00
DAV:   3    -0.395090798643E+02    0.38833E-01   -0.11471E-01  4536   0.419E+00    0.648E-02
DAV:   4    -0.395093924786E+02   -0.31261E-03   -0.37342E-03  3576   0.268E-01    0.104E-01
DAV:   5    -0.395093167538E+02    0.75725E-04   -0.21294E-04  4792   0.162E-01    0.101E-02
DAV:   6    -0.395093167186E+02    0.35169E-07   -0.95849E-06  3704   0.159E-02    0.224E-03
DAV:   7    -0.395093165597E+02    0.15890E-06   -0.49384E-07  4032   0.560E-03    0.682E-04
DAV:   8    -0.395093165174E+02    0.42385E-07   -0.35923E-08  3584   0.119E-03    0.403E-04
DAV:   9    -0.395093164300E+02    0.87360E-07   -0.47328E-09  2008   0.432E-04    0.545E-05
DAV:  10    -0.395093164246E+02    0.54160E-08   -0.11707E-09  1864   0.254E-04
   5 F= -.39509316E+02 E0= -.39509100E+02  d E =-.464270E+01  mag=    -0.0000
       N       E                     dE             d eps       ncg     rms          rms(c)
DAV:   1    -0.399119926694E+02   -0.40268E+00   -0.62760E+00  3720   0.189E+01    0.502E+00
DAV:   2    -0.405733044660E+02   -0.66131E+00   -0.51846E+00  4568   0.272E+01    0.924E+00
DAV:   3    -0.396561599243E+02    0.91714E+00   -0.27049E+00  4520   0.224E+01    0.136E+00
DAV:   4    -0.396437762868E+02    0.12384E-01   -0.20936E-01  4152   0.259E+00    0.952E-01
DAV:   5    -0.396362729912E+02    0.75033E-02   -0.27684E-02  4760   0.185E+00    0.660E-02
DAV:   6    -0.396363302382E+02   -0.57247E-04   -0.13398E-03  3752   0.252E-01    0.360E-02
DAV:   7    -0.396363378800E+02   -0.76417E-05   -0.94303E-05  4504   0.101E-01    0.267E-02
DAV:   8    -0.396363336843E+02    0.41956E-05   -0.29766E-05  4604   0.612E-02    0.462E-03
DAV:   9    -0.396363334655E+02    0.21878E-06   -0.15527E-06  4264   0.119E-02    0.904E-04
DAV:  10    -0.396363333963E+02    0.69275E-07   -0.15151E-07  4388   0.315E-03    0.707E-04
DAV:  11    -0.396363333976E+02   -0.13633E-08   -0.22192E-08  2912   0.148E-03
   6 F= -.39636333E+02 E0= -.39636330E+02  d E =-.127017E+00  mag=    -0.0000
       N       E                     dE             d eps       ncg     rms          rms(c)
DAV:   1    -0.398524901657E+02   -0.21616E+00   -0.40231E+00  3744   0.154E+01    0.408E+00
DAV:   2    -0.402916150157E+02   -0.43912E+00   -0.34180E+00  4648   0.224E+01    0.765E+00
DAV:   3    -0.396838114195E+02    0.60780E+00   -0.18486E+00  4552   0.184E+01    0.114E+00
DAV:   4    -0.396728372029E+02    0.10974E-01   -0.12213E-01  3792   0.197E+00    0.630E-01
DAV:   5    -0.396697072633E+02    0.31299E-02   -0.12577E-02  4576   0.123E+00    0.562E-02
DAV:   6    -0.396697206964E+02   -0.13433E-04   -0.69509E-04  3688   0.181E-01    0.201E-02
DAV:   7    -0.396697262085E+02   -0.55122E-05   -0.40912E-05  4908   0.563E-02    0.187E-02
DAV:   8    -0.396697238355E+02    0.23731E-05   -0.14265E-05  4560   0.431E-02    0.315E-03
DAV:   9    -0.396697235544E+02    0.28106E-06   -0.77126E-07  4120   0.830E-03    0.397E-04
DAV:  10    -0.396697235368E+02    0.17579E-07   -0.39920E-08  3660   0.123E-03    0.310E-04
DAV:  11    -0.396697235426E+02   -0.57926E-08   -0.81154E-09  2056   0.726E-04
   7 F= -.39669724E+02 E0= -.39669772E+02  d E =-.160407E+00  mag=    -0.0000
       N       E                     dE             d eps       ncg     rms          rms(c)
DAV:   1    -0.400450815426E+02   -0.37536E+00   -0.27637E+00  3872   0.204E+01    0.670E+00
DAV:   2    -0.427024393460E+02   -0.26574E+01   -0.15882E+01  4664   0.465E+01    0.209E+01
DAV:   3    -0.396770543136E+02    0.30254E+01   -0.96474E+00  4664   0.330E+01    0.174E+00
DAV:   4    -0.396827772699E+02   -0.57230E-02   -0.29072E-01  3576   0.367E+00    0.827E-01
DAV:   5    -0.396778090137E+02    0.49683E-02   -0.19040E-02  5144   0.127E+00    0.893E-02
DAV:   6    -0.396775984308E+02    0.21058E-03   -0.11310E-03  3800   0.288E-01    0.451E-02
DAV:   7    -0.396775894483E+02    0.89825E-05   -0.10659E-04  4912   0.926E-02    0.113E-02
DAV:   8    -0.396775903745E+02   -0.92621E-06   -0.53513E-06  4072   0.147E-02    0.725E-03
DAV:   9    -0.396775905512E+02   -0.17675E-06   -0.17307E-06  4488   0.124E-02    0.102E-03
DAV:  10    -0.396775906525E+02   -0.10132E-06   -0.46475E-08  3768   0.138E-03    0.689E-04
DAV:  11    -0.396775906740E+02   -0.21454E-07   -0.41584E-09  1988   0.561E-04    0.288E-04
DAV:  12    -0.396775906760E+02   -0.19545E-08   -0.34651E-09  1868   0.347E-04
   8 F= -.39677591E+02 E0= -.39677256E+02  d E =-.786713E-02  mag=    -0.0000
       N       E                     dE             d eps       ncg     rms          rms(c)
DAV:   1    -0.396782825533E+02   -0.69188E-03   -0.49588E-03  3936   0.857E-01    0.302E-01
DAV:   2    -0.396834142839E+02   -0.51317E-02   -0.30512E-02  4616   0.209E+00    0.807E-01
DAV:   3    -0.396775727419E+02    0.58415E-02   -0.17190E-02  4528   0.164E+00    0.300E-02
DAV:   4    -0.396776147247E+02   -0.41983E-04   -0.53521E-04  3560   0.103E-01    0.366E-02
DAV:   5    -0.396776056132E+02    0.91115E-05   -0.26071E-05  4768   0.561E-02    0.391E-03
DAV:   6    -0.396776055786E+02    0.34605E-07   -0.12035E-06  3672   0.580E-03    0.815E-04
DAV:   7    -0.396776055043E+02    0.74318E-07   -0.59928E-08  3528   0.180E-03    0.206E-04
DAV:   8    -0.396776054868E+02    0.17544E-07   -0.53748E-09  2028   0.518E-04    0.116E-04
DAV:   9    -0.396776054573E+02    0.29465E-07   -0.12181E-09  1832   0.202E-04    0.370E-05
DAV:  10    -0.396776054569E+02    0.40563E-09   -0.31170E-10  1792   0.137E-04
   9 F= -.39677605E+02 E0= -.39677281E+02  d E =-.788191E-02  mag=    -0.0000
       N       E                     dE             d eps       ncg     rms          rms(c)
DAV:   1    -0.397013555412E+02   -0.23750E-01   -0.25005E-01  3896   0.511E+00    0.167E+00
DAV:   2    -0.398349363002E+02   -0.13358E+00   -0.82943E-01  4584   0.110E+01    0.405E+00
DAV:   3    -0.396791605477E+02    0.15578E+00   -0.45123E-01  4504   0.868E+00    0.218E-01
DAV:   4    -0.396802300111E+02   -0.10695E-02   -0.18428E-02  3624   0.627E-01    0.239E-01
DAV:   5    -0.396798050223E+02    0.42499E-03   -0.12496E-03  4748   0.394E-01    0.235E-02
DAV:   6    -0.396798053846E+02   -0.36230E-06   -0.62744E-05  3712   0.463E-02    0.587E-03
DAV:   7    -0.396798053874E+02   -0.27740E-08   -0.26965E-06  4376   0.127E-02    0.267E-03
DAV:   8    -0.396798051900E+02    0.19736E-06   -0.34507E-07  4424   0.532E-03    0.101E-03
DAV:   9    -0.396798050175E+02    0.17255E-06   -0.63140E-08  3836   0.166E-03    0.126E-04
DAV:  10    -0.396798050177E+02   -0.24011E-09   -0.74128E-09  1968   0.636E-04
  10 F= -.39679805E+02 E0= -.39679428E+02  d E =-.219956E-02  mag=     0.0000
       N       E                     dE             d eps       ncg     rms          rms(c)
DAV:   1    -0.396799032800E+02   -0.98263E-04   -0.10472E-03  3920   0.332E-01    0.107E-01
DAV:   2    -0.396804453709E+02   -0.54209E-03   -0.33904E-03  4592   0.705E-01    0.263E-01
DAV:   3    -0.396798119515E+02    0.63342E-03   -0.19393E-03  4496   0.548E-01    0.157E-02
DAV:   4    -0.396798152255E+02   -0.32740E-05   -0.64114E-05  3592   0.375E-02    0.133E-02
DAV:   5    -0.396798140824E+02    0.11432E-05   -0.43548E-06  4712   0.231E-02    0.106E-03
DAV:   6    -0.396798141052E+02   -0.22813E-07   -0.19723E-07  3712   0.334E-03    0.461E-04
DAV:   7    -0.396798141007E+02    0.44965E-08   -0.66944E-09  2080   0.595E-04
  11 F= -.39679814E+02 E0= -.39679436E+02  d E =-.220864E-02  mag=     0.0000
       N       E                     dE             d eps       ncg     rms          rms(c)
DAV:   1    -0.396799663607E+02   -0.15226E-03   -0.29546E-03  3728   0.383E-01    0.772E-02
DAV:   2    -0.396799741208E+02   -0.77602E-05   -0.55067E-04  4528   0.281E-01    0.994E-02
DAV:   3    -0.396798939109E+02    0.80210E-04   -0.37889E-04  4520   0.241E-01    0.396E-02
DAV:   4    -0.396798746157E+02    0.19295E-04   -0.38918E-05  4784   0.602E-02    0.687E-03
DAV:   5    -0.396798743190E+02    0.29674E-06   -0.41935E-06  4192   0.163E-02    0.148E-03
DAV:   6    -0.396798742993E+02    0.19661E-07   -0.25790E-07  4032   0.504E-03    0.782E-04
DAV:   7    -0.396798742864E+02    0.12899E-07   -0.28238E-08  2992   0.165E-03    0.248E-04
DAV:   8    -0.396798742881E+02   -0.16626E-08   -0.28375E-09  1872   0.568E-04
  12 F= -.39679874E+02 E0= -.39679511E+02  d E =-.601874E-04  mag=    -0.0000
       N       E                     dE             d eps       ncg     rms          rms(c)
DAV:   1    -0.396799075477E+02   -0.33261E-04   -0.79116E-04  3728   0.198E-01    0.399E-02
DAV:   2    -0.396799094759E+02   -0.19282E-05   -0.14728E-04  4528   0.145E-01    0.514E-02
DAV:   3    -0.396798882480E+02    0.21228E-04   -0.10124E-04  4520   0.125E-01    0.205E-02
DAV:   4    -0.396798830149E+02    0.52331E-05   -0.10411E-05  4784   0.311E-02    0.355E-03
DAV:   5    -0.396798829237E+02    0.91199E-07   -0.11220E-06  4192   0.844E-03    0.767E-04
DAV:   6    -0.396798829129E+02    0.10817E-07   -0.68857E-08  3828   0.260E-03    0.402E-04
DAV:   7    -0.396798829066E+02    0.62746E-08   -0.64338E-09  1912   0.845E-04
  13 F= -.39679883E+02 E0= -.39679527E+02  d E =-.688059E-04  mag=    -0.0000
