   3   3   0   0
  0.1164176E+02  0.4530581E-09  0.4530581E-09  0.4530581E-09  0.5000000E-15
  1.000000000000000E-004
  CAR 
 unknown system                          
     26.94924378    -58.61332467  301      8.60331937      1.00000000
    -58.613  0.0000E+00  0.0000E+00  0.0000E+00  0.0000E+00
    -58.328  0.0000E+00  0.0000E+00  0.0000E+00  0.0000E+00
    -58.043  0.0000E+00  0.0000E+00  0.0000E+00  0.0000E+00
    -57.758  0.0000E+00  0.0000E+00  0.0000E+00  0.0000E+00
    -57.472  0.0000E+00  0.0000E+00  0.0000E+00  0.0000E+00
    -57.187  0.0000E+00  0.0000E+00  0.0000E+00  0.0000E+00
    -56.902  0.0000E+00  0.0000E+00  0.0000E+00  0.0000E+00
    -56.617  0.0000E+00  0.0000E+00  0.0000E+00  0.0000E+00
    -56.332  0.0000E+00  0.0000E+00  0.0000E+00  0.0000E+00
    -56.046  0.0000E+00  0.0000E+00  0.0000E+00  0.0000E+00
    -55.761  0.0000E+00  0.0000E+00  0.0000E+00  0.0000E+00
    -55.476  0.0000E+00  0.0000E+00  0.0000E+00  0.0000E+00
    -55.191  0.0000E+00  0.0000E+00  0.0000E+00  0.0000E+00
    -54.906  0.0000E+00  0.0000E+00  0.0000E+00  0.0000E+00
    -54.620  0.4219E+02  0.4219E+02  0.4124E+01  0.4124E+01
    -54.335  0.0000E+00  0.0000E+00  0.6000E+01  0.6000E+01
    -54.050  0.0000E+00  0.0000E+00  0.6000E+01  0.6000E+01
    -53.765  0.0000E+00  0.0000E+00  0.6000E+01  0.6000E+01
    -53.480  0.0000E+00  0.0000E+00  0.6000E+01  0.6000E+01
    -53.194  0.0000E+00  0.0000E+00  0.6000E+01  0.6000E+01
    -52.909  0.0000E+00  0.0000E+00  0.6000E+01  0.6000E+01
    -52.624  0.0000E+00  0.0000E+00  0.6000E+01  0.6000E+01
    -52.339  0.0000E+00  0.0000E+00  0.6000E+01  0.6000E+01
    -52.054  0.0000E+00  0.0000E+00  0.6000E+01  0.6000E+01
    -51.768  0.0000E+00  0.0000E+00  0.6000E+01  0.6000E+01
    -51.483  0.0000E+00  0.0000E+00  0.6000E+01  0.6000E+01
    -51.198  0.0000E+00  0.0000E+00  0.6000E+01  0.6000E+01
    -50.913  0.0000E+00  0.0000E+00  0.6000E+01  0.6000E+01
    -50.627  0.0000E+00  0.0000E+00  0.6000E+01  0.6000E+01
    -50.342  0.0000E+00  0.0000E+00  0.6000E+01  0.6000E+01
    -50.057  0.0000E+00  0.0000E+00  0.6000E+01  0.6000E+01
    -49.772  0.0000E+00  0.0000E+00  0.6000E+01  0.6000E+01
    -49.487  0.0000E+00  0.0000E+00  0.6000E+01  0.6000E+01
    -49.201  0.0000E+00  0.0000E+00  0.6000E+01  0.6000E+01
    -48.916  0.0000E+00  0.0000E+00  0.6000E+01  0.6000E+01
    -48.631  0.0000E+00  0.0000E+00  0.6000E+01  0.6000E+01
    -48.346  0.0000E+00  0.0000E+00  0.6000E+01  0.6000E+01
    -48.061  0.0000E+00  0.0000E+00  0.6000E+01  0.6000E+01
    -47.775  0.0000E+00  0.0000E+00  0.6000E+01  0.6000E+01
    -47.490  0.0000E+00  0.0000E+00  0.6000E+01  0.6000E+01
    -47.205  0.0000E+00  0.0000E+00  0.6000E+01  0.6000E+01
    -46.920  0.0000E+00  0.0000E+00  0.6000E+01  0.6000E+01
    -46.635  0.0000E+00  0.0000E+00  0.6000E+01  0.6000E+01
    -46.349  0.0000E+00  0.0000E+00  0.6000E+01  0.6000E+01
    -46.064  0.0000E+00  0.0000E+00  0.6000E+01  0.6000E+01
    -45.779  0.0000E+00  0.0000E+00  0.6000E+01  0.6000E+01
    -45.494  0.0000E+00  0.0000E+00  0.6000E+01  0.6000E+01
    -45.209  0.0000E+00  0.0000E+00  0.6000E+01  0.6000E+01
    -44.923  0.0000E+00  0.0000E+00  0.6000E+01  0.6000E+01
    -44.638  0.0000E+00  0.0000E+00  0.6000E+01  0.6000E+01
    -44.353  0.0000E+00  0.0000E+00  0.6000E+01  0.6000E+01
    -44.068  0.0000E+00  0.0000E+00  0.6000E+01  0.6000E+01
    -43.782  0.0000E+00  0.0000E+00  0.6000E+01  0.6000E+01
    -43.497  0.0000E+00  0.0000E+00  0.6000E+01  0.6000E+01
    -43.212  0.0000E+00  0.0000E+00  0.6000E+01  0.6000E+01
    -42.927  0.0000E+00  0.0000E+00  0.6000E+01  0.6000E+01
    -42.642  0.0000E+00  0.0000E+00  0.6000E+01  0.6000E+01
    -42.356  0.0000E+00  0.0000E+00  0.6000E+01  0.6000E+01
    -42.071  0.0000E+00  0.0000E+00  0.6000E+01  0.6000E+01
    -41.786  0.0000E+00  0.0000E+00  0.6000E+01  0.6000E+01
    -41.501  0.0000E+00  0.0000E+00  0.6000E+01  0.6000E+01
    -41.216  0.0000E+00  0.0000E+00  0.6000E+01  0.6000E+01
    -40.930  0.0000E+00  0.0000E+00  0.6000E+01  0.6000E+01
    -40.645  0.0000E+00  0.0000E+00  0.6000E+01  0.6000E+01
    -40.360  0.0000E+00  0.0000E+00  0.6000E+01  0.6000E+01
    -40.075  0.0000E+00  0.0000E+00  0.6000E+01  0.6000E+01
    -39.790  0.0000E+00  0.0000E+00  0.6000E+01  0.6000E+01
    -39.504  0.0000E+00  0.0000E+00  0.6000E+01  0.6000E+01
    -39.219  0.0000E+00  0.0000E+00  0.6000E+01  0.6000E+01
    -38.934  0.0000E+00  0.0000E+00  0.6000E+01  0.6000E+01
    -38.649  0.0000E+00  0.0000E+00  0.6000E+01  0.6000E+01
    -38.364  0.0000E+00  0.0000E+00  0.6000E+01  0.6000E+01
    -38.078  0.0000E+00  0.0000E+00  0.6000E+01  0.6000E+01
    -37.793  0.0000E+00  0.0000E+00  0.6000E+01  0.6000E+01
    -37.508  0.0000E+00  0.0000E+00  0.6000E+01  0.6000E+01
    -37.223  0.0000E+00  0.0000E+00  0.6000E+01  0.6000E+01
    -36.937  0.0000E+00  0.0000E+00  0.6000E+01  0.6000E+01
    -36.652  0.0000E+00  0.0000E+00  0.6000E+01  0.6000E+01
    -36.367  0.0000E+00  0.0000E+00  0.6000E+01  0.6000E+01
    -36.082  0.0000E+00  0.0000E+00  0.6000E+01  0.6000E+01
    -35.797  0.0000E+00  0.0000E+00  0.6000E+01  0.6000E+01
    -35.511  0.0000E+00  0.0000E+00  0.6000E+01  0.6000E+01
    -35.226  0.0000E+00  0.0000E+00  0.6000E+01  0.6000E+01
    -34.941  0.0000E+00  0.0000E+00  0.6000E+01  0.6000E+01
    -34.656  0.0000E+00  0.0000E+00  0.6000E+01  0.6000E+01
    -34.371  0.0000E+00  0.0000E+00  0.6000E+01  0.6000E+01
    -34.085  0.0000E+00  0.0000E+00  0.6000E+01  0.6000E+01
    -33.800  0.0000E+00  0.0000E+00  0.6000E+01  0.6000E+01
    -33.515  0.0000E+00  0.0000E+00  0.6000E+01  0.6000E+01
    -33.230  0.0000E+00  0.0000E+00  0.6000E+01  0.6000E+01
    -32.945  0.0000E+00  0.0000E+00  0.6000E+01  0.6000E+01
    -32.659  0.0000E+00  0.0000E+00  0.6000E+01  0.6000E+01
    -32.374  0.0000E+00  0.0000E+00  0.6000E+01  0.6000E+01
    -32.089  0.0000E+00  0.0000E+00  0.6000E+01  0.6000E+01
    -31.804  0.0000E+00  0.0000E+00  0.6000E+01  0.6000E+01
    -31.519  0.0000E+00  0.0000E+00  0.6000E+01  0.6000E+01
    -31.233  0.0000E+00  0.0000E+00  0.6000E+01  0.6000E+01
    -30.948  0.0000E+00  0.0000E+00  0.6000E+01  0.6000E+01
    -30.663  0.0000E+00  0.0000E+00  0.6000E+01  0.6000E+01
    -30.378  0.0000E+00  0.0000E+00  0.6000E+01  0.6000E+01
    -30.092  0.0000E+00  0.0000E+00  0.6000E+01  0.6000E+01
    -29.807  0.0000E+00  0.0000E+00  0.6000E+01  0.6000E+01
    -29.522  0.0000E+00  0.0000E+00  0.6000E+01  0.6000E+01
    -29.237  0.0000E+00  0.0000E+00  0.6000E+01  0.6000E+01
    -28.952  0.0000E+00  0.0000E+00  0.6000E+01  0.6000E+01
    -28.666  0.0000E+00  0.0000E+00  0.6000E+01  0.6000E+01
    -28.381  0.0000E+00  0.0000E+00  0.6000E+01  0.6000E+01
    -28.096  0.0000E+00  0.0000E+00  0.6000E+01  0.6000E+01
    -27.811  0.0000E+00  0.0000E+00  0.6000E+01  0.6000E+01
    -27.526  0.0000E+00  0.0000E+00  0.6000E+01  0.6000E+01
    -27.240  0.0000E+00  0.0000E+00  0.6000E+01  0.6000E+01
    -26.955  0.0000E+00  0.0000E+00  0.6000E+01  0.6000E+01
    -26.670  0.0000E+00  0.0000E+00  0.6000E+01  0.6000E+01
    -26.385  0.0000E+00  0.0000E+00  0.6000E+01  0.6000E+01
    -26.100  0.0000E+00  0.0000E+00  0.6000E+01  0.6000E+01
    -25.814  0.0000E+00  0.0000E+00  0.6000E+01  0.6000E+01
    -25.529  0.0000E+00  0.0000E+00  0.6000E+01  0.6000E+01
    -25.244  0.0000E+00  0.0000E+00  0.6000E+01  0.6000E+01
    -24.959  0.0000E+00  0.0000E+00  0.6000E+01  0.6000E+01
    -24.674  0.0000E+00  0.0000E+00  0.6000E+01  0.6000E+01
    -24.388  0.0000E+00  0.0000E+00  0.6000E+01  0.6000E+01
    -24.103  0.0000E+00  0.0000E+00  0.6000E+01  0.6000E+01
    -23.818  0.0000E+00  0.0000E+00  0.6000E+01  0.6000E+01
    -23.533  0.0000E+00  0.0000E+00  0.6000E+01  0.6000E+01
    -23.247  0.0000E+00  0.0000E+00  0.6000E+01  0.6000E+01
    -22.962  0.0000E+00  0.0000E+00  0.6000E+01  0.6000E+01
    -22.677  0.0000E+00  0.0000E+00  0.6000E+01  0.6000E+01
    -22.392  0.0000E+00  0.0000E+00  0.6000E+01  0.6000E+01
    -22.107  0.0000E+00  0.0000E+00  0.6000E+01  0.6000E+01
    -21.821  0.0000E+00  0.0000E+00  0.6000E+01  0.6000E+01
    -21.536  0.0000E+00  0.0000E+00  0.6000E+01  0.6000E+01
    -21.251  0.0000E+00  0.0000E+00  0.6000E+01  0.6000E+01
    -20.966  0.0000E+00  0.0000E+00  0.6000E+01  0.6000E+01
    -20.681  0.0000E+00  0.0000E+00  0.6000E+01  0.6000E+01
    -20.395  0.0000E+00  0.0000E+00  0.6000E+01  0.6000E+01
    -20.110  0.0000E+00  0.0000E+00  0.6000E+01  0.6000E+01
    -19.825  0.0000E+00  0.0000E+00  0.6000E+01  0.6000E+01
    -19.540  0.0000E+00  0.0000E+00  0.6000E+01  0.6000E+01
    -19.255  0.0000E+00  0.0000E+00  0.6000E+01  0.6000E+01
    -18.969  0.0000E+00  0.0000E+00  0.6000E+01  0.6000E+01
    -18.684  0.0000E+00  0.0000E+00  0.6000E+01  0.6000E+01
    -18.399  0.0000E+00  0.0000E+00  0.6000E+01  0.6000E+01
    -18.114  0.0000E+00  0.0000E+00  0.6000E+01  0.6000E+01
    -17.829  0.0000E+00  0.0000E+00  0.6000E+01  0.6000E+01
    -17.543  0.0000E+00  0.0000E+00  0.6000E+01  0.6000E+01
    -17.258  0.0000E+00  0.0000E+00  0.6000E+01  0.6000E+01
    -16.973  0.0000E+00  0.0000E+00  0.6000E+01  0.6000E+01
    -16.688  0.0000E+00  0.0000E+00  0.6000E+01  0.6000E+01
    -16.402  0.0000E+00  0.0000E+00  0.6000E+01  0.6000E+01
    -16.117  0.0000E+00  0.0000E+00  0.6000E+01  0.6000E+01
    -15.832  0.0000E+00  0.0000E+00  0.6000E+01  0.6000E+01
    -15.547  0.0000E+00  0.0000E+00  0.6000E+01  0.6000E+01
    -15.262  0.0000E+00  0.0000E+00  0.6000E+01  0.6000E+01
    -14.976  0.0000E+00  0.0000E+00  0.6000E+01  0.6000E+01
    -14.691  0.0000E+00  0.0000E+00  0.6000E+01  0.6000E+01
    -14.406  0.0000E+00  0.0000E+00  0.6000E+01  0.6000E+01
    -14.121  0.0000E+00  0.0000E+00  0.6000E+01  0.6000E+01
    -13.836  0.0000E+00  0.0000E+00  0.6000E+01  0.6000E+01
    -13.550  0.0000E+00  0.0000E+00  0.6000E+01  0.6000E+01
    -13.265  0.0000E+00  0.0000E+00  0.6000E+01  0.6000E+01
    -12.980  0.0000E+00  0.0000E+00  0.6000E+01  0.6000E+01
    -12.695  0.0000E+00  0.0000E+00  0.6000E+01  0.6000E+01
    -12.410  0.0000E+00  0.0000E+00  0.6000E+01  0.6000E+01
    -12.124  0.0000E+00  0.0000E+00  0.6000E+01  0.6000E+01
    -11.839  0.0000E+00  0.0000E+00  0.6000E+01  0.6000E+01
    -11.554  0.0000E+00  0.0000E+00  0.6000E+01  0.6000E+01
    -11.269  0.0000E+00  0.0000E+00  0.6000E+01  0.6000E+01
    -10.983  0.0000E+00  0.0000E+00  0.6000E+01  0.6000E+01
    -10.698  0.0000E+00  0.0000E+00  0.6000E+01  0.6000E+01
    -10.413  0.0000E+00  0.0000E+00  0.6000E+01  0.6000E+01
    -10.128  0.0000E+00  0.0000E+00  0.6000E+01  0.6000E+01
     -9.843  0.0000E+00  0.0000E+00  0.6000E+01  0.6000E+01
     -9.557  0.0000E+00  0.0000E+00  0.6000E+01  0.6000E+01
     -9.272  0.0000E+00  0.0000E+00  0.6000E+01  0.6000E+01
     -8.987  0.0000E+00  0.0000E+00  0.6000E+01  0.6000E+01
     -8.702  0.0000E+00  0.0000E+00  0.6000E+01  0.6000E+01
     -8.417  0.0000E+00  0.0000E+00  0.6000E+01  0.6000E+01
     -8.131  0.0000E+00  0.0000E+00  0.6000E+01  0.6000E+01
     -7.846  0.0000E+00  0.0000E+00  0.6000E+01  0.6000E+01
     -7.561  0.0000E+00  0.0000E+00  0.6000E+01  0.6000E+01
     -7.276  0.0000E+00  0.0000E+00  0.6000E+01  0.6000E+01
     -6.991  0.0000E+00  0.0000E+00  0.6000E+01  0.6000E+01
     -6.705  0.0000E+00  0.0000E+00  0.6000E+01  0.6000E+01
     -6.420  0.0000E+00  0.0000E+00  0.6000E+01  0.6000E+01
     -6.135  0.0000E+00  0.0000E+00  0.6000E+01  0.6000E+01
     -5.850  0.0000E+00  0.0000E+00  0.6000E+01  0.6000E+01
     -5.565  0.0000E+00  0.0000E+00  0.6000E+01  0.6000E+01
     -5.279  0.0000E+00  0.0000E+00  0.6000E+01  0.6000E+01
     -4.994  0.0000E+00  0.0000E+00  0.6000E+01  0.6000E+01
     -4.709  0.0000E+00  0.0000E+00  0.6000E+01  0.6000E+01
     -4.424  0.0000E+00  0.0000E+00  0.6000E+01  0.6000E+01
     -4.138  0.0000E+00  0.0000E+00  0.6000E+01  0.6000E+01
     -3.853  0.0000E+00  0.0000E+00  0.6000E+01  0.6000E+01
     -3.568  0.0000E+00  0.0000E+00  0.6000E+01  0.6000E+01
     -3.283  0.0000E+00  0.0000E+00  0.6000E+01  0.6000E+01
     -2.998  0.0000E+00  0.0000E+00  0.6000E+01  0.6000E+01
     -2.712  0.0000E+00  0.0000E+00  0.6000E+01  0.6000E+01
     -2.427  0.0000E+00  0.0000E+00  0.6000E+01  0.6000E+01
     -2.142  0.0000E+00  0.0000E+00  0.6000E+01  0.6000E+01
     -1.857  0.0000E+00  0.0000E+00  0.6000E+01  0.6000E+01
     -1.572  0.2319E-01  0.2319E-01  0.6002E+01  0.6002E+01
     -1.286  0.7715E-01  0.7715E-01  0.6016E+01  0.6016E+01
     -1.001  0.9862E-01  0.9862E-01  0.6042E+01  0.6042E+01
     -0.716  0.1200E+00  0.1200E+00  0.6072E+01  0.6072E+01
     -0.431  0.1473E+00  0.1473E+00  0.6111E+01  0.6111E+01
     -0.146  0.1839E+00  0.1839E+00  0.6157E+01  0.6157E+01
      0.140  0.2014E+00  0.2014E+00  0.6213E+01  0.6213E+01
      0.425  0.2034E+00  0.2034E+00  0.6272E+01  0.6272E+01
      0.710  0.2124E+00  0.2124E+00  0.6331E+01  0.6331E+01
      0.995  0.2252E+00  0.2252E+00  0.6393E+01  0.6393E+01
      1.280  0.2668E+00  0.2668E+00  0.6463E+01  0.6463E+01
      1.566  0.2732E+00  0.2732E+00  0.6540E+01  0.6540E+01
      1.851  0.2598E+00  0.2598E+00  0.6617E+01  0.6617E+01
      2.136  0.2813E+00  0.2813E+00  0.6692E+01  0.6692E+01
      2.421  0.3318E+00  0.3318E+00  0.6782E+01  0.6782E+01
      2.707  0.3098E+00  0.3098E+00  0.6874E+01  0.6874E+01
      2.992  0.4053E+00  0.4053E+00  0.6976E+01  0.6976E+01
      3.277  0.4217E+00  0.4217E+00  0.7096E+01  0.7096E+01
      3.562  0.4316E+00  0.4316E+00  0.7214E+01  0.7214E+01
      3.847  0.3815E+00  0.3815E+00  0.7338E+01  0.7338E+01
      4.133  0.6182E+00  0.6182E+00  0.7460E+01  0.7460E+01
      4.418  0.7925E+00  0.7925E+00  0.7676E+01  0.7676E+01
      4.703  0.9256E+00  0.9256E+00  0.7936E+01  0.7936E+01
      4.988  0.1004E+01  0.1004E+01  0.8186E+01  0.8186E+01
      5.273  0.1600E+01  0.1600E+01  0.8613E+01  0.8613E+01
      5.559  0.1280E+01  0.1280E+01  0.9074E+01  0.9074E+01
      5.844  0.3125E+01  0.3125E+01  0.9860E+01  0.9860E+01
      6.129  0.3787E+01  0.3787E+01  0.1072E+02  0.1072E+02
      6.414  0.1238E+01  0.1238E+01  0.1156E+02  0.1156E+02
      6.699  0.5903E+01  0.5903E+01  0.1222E+02  0.1222E+02
      6.985  0.1877E+01  0.1877E+01  0.1305E+02  0.1305E+02
      7.270  0.3149E+01  0.3149E+01  0.1403E+02  0.1403E+02
      7.555  0.2053E+01  0.2053E+01  0.1468E+02  0.1468E+02
      7.840  0.4160E+01  0.4160E+01  0.1557E+02  0.1557E+02
      8.125  0.2134E+01  0.2134E+01  0.1679E+02  0.1679E+02
      8.411  0.1174E+01  0.1174E+01  0.1732E+02  0.1732E+02
      8.696  0.7436E+00  0.7436E+00  0.1757E+02  0.1757E+02
      8.981  0.6424E+00  0.6424E+00  0.1777E+02  0.1777E+02
      9.266  0.7035E+00  0.7035E+00  0.1796E+02  0.1796E+02
      9.552  0.6368E+00  0.6368E+00  0.1816E+02  0.1816E+02
      9.837  0.5281E+00  0.5281E+00  0.1832E+02  0.1832E+02
     10.122  0.4353E+00  0.4353E+00  0.1846E+02  0.1846E+02
     10.407  0.4075E+00  0.4075E+00  0.1858E+02  0.1858E+02
     10.692  0.4131E+00  0.4131E+00  0.1869E+02  0.1869E+02
     10.978  0.2240E+00  0.2240E+00  0.1878E+02  0.1878E+02
     11.263  0.2270E+00  0.2270E+00  0.1884E+02  0.1884E+02
     11.548  0.2220E+00  0.2220E+00  0.1891E+02  0.1891E+02
     11.833  0.1797E+00  0.1797E+00  0.1897E+02  0.1897E+02
     12.118  0.4308E+00  0.4308E+00  0.1905E+02  0.1905E+02
     12.404  0.5288E+00  0.5288E+00  0.1918E+02  0.1918E+02
     12.689  0.5490E+00  0.5490E+00  0.1934E+02  0.1934E+02
     12.974  0.5638E+00  0.5638E+00  0.1950E+02  0.1950E+02
     13.259  0.5144E+00  0.5144E+00  0.1965E+02  0.1965E+02
     13.544  0.5916E+00  0.5916E+00  0.1981E+02  0.1981E+02
     13.830  0.5511E+00  0.5511E+00  0.1997E+02  0.1997E+02
     14.115  0.5294E+00  0.5294E+00  0.2012E+02  0.2012E+02
     14.400  0.5134E+00  0.5134E+00  0.2028E+02  0.2028E+02
     14.685  0.5013E+00  0.5013E+00  0.2042E+02  0.2042E+02
     14.970  0.5098E+00  0.5098E+00  0.2056E+02  0.2056E+02
     15.256  0.5483E+00  0.5483E+00  0.2072E+02  0.2072E+02
     15.541  0.5711E+00  0.5711E+00  0.2088E+02  0.2088E+02
     15.826  0.5880E+00  0.5880E+00  0.2104E+02  0.2104E+02
     16.111  0.5927E+00  0.5927E+00  0.2121E+02  0.2121E+02
     16.397  0.5620E+00  0.5620E+00  0.2137E+02  0.2137E+02
     16.682  0.5199E+00  0.5199E+00  0.2153E+02  0.2153E+02
     16.967  0.5457E+00  0.5457E+00  0.2168E+02  0.2168E+02
     17.252  0.6094E+00  0.6094E+00  0.2184E+02  0.2184E+02
     17.537  0.6313E+00  0.6313E+00  0.2202E+02  0.2202E+02
     17.823  0.6702E+00  0.6702E+00  0.2220E+02  0.2220E+02
     18.108  0.6497E+00  0.6497E+00  0.2239E+02  0.2239E+02
     18.393  0.6308E+00  0.6308E+00  0.2257E+02  0.2257E+02
     18.678  0.5565E+00  0.5565E+00  0.2274E+02  0.2274E+02
     18.963  0.5813E+00  0.5813E+00  0.2290E+02  0.2290E+02
     19.249  0.5812E+00  0.5812E+00  0.2307E+02  0.2307E+02
     19.534  0.5391E+00  0.5391E+00  0.2323E+02  0.2323E+02
     19.819  0.4608E+00  0.4608E+00  0.2337E+02  0.2337E+02
     20.104  0.3776E+00  0.3776E+00  0.2349E+02  0.2349E+02
     20.389  0.3153E+00  0.3153E+00  0.2359E+02  0.2359E+02
     20.675  0.3094E+00  0.3094E+00  0.2367E+02  0.2367E+02
     20.960  0.3090E+00  0.3090E+00  0.2377E+02  0.2377E+02
     21.245  0.2614E+00  0.2614E+00  0.2385E+02  0.2385E+02
     21.530  0.1875E+00  0.1875E+00  0.2391E+02  0.2391E+02
     21.815  0.9593E-01  0.9593E-01  0.2395E+02  0.2395E+02
     22.101  0.5941E-01  0.5941E-01  0.2397E+02  0.2397E+02
     22.386  0.4051E-01  0.4051E-01  0.2399E+02  0.2399E+02
     22.671  0.2470E-01  0.2470E-01  0.2399E+02  0.2399E+02
     22.956  0.9007E-02  0.9007E-02  0.2400E+02  0.2400E+02
     23.242  0.0000E+00  0.0000E+00  0.2400E+02  0.2400E+02
     23.527  0.0000E+00  0.0000E+00  0.2400E+02  0.2400E+02
     23.812  0.0000E+00  0.0000E+00  0.2400E+02  0.2400E+02
     24.097  0.0000E+00  0.0000E+00  0.2400E+02  0.2400E+02
     24.382  0.0000E+00  0.0000E+00  0.2400E+02  0.2400E+02
     24.668  0.0000E+00  0.0000E+00  0.2400E+02  0.2400E+02
     24.953  0.0000E+00  0.0000E+00  0.2400E+02  0.2400E+02
     25.238  0.0000E+00  0.0000E+00  0.2400E+02  0.2400E+02
     25.523  0.0000E+00  0.0000E+00  0.2400E+02  0.2400E+02
     25.808  0.0000E+00  0.0000E+00  0.2400E+02  0.2400E+02
     26.094  0.0000E+00  0.0000E+00  0.2400E+02  0.2400E+02
     26.379  0.0000E+00  0.0000E+00  0.2400E+02  0.2400E+02
     26.664  0.0000E+00  0.0000E+00  0.2400E+02  0.2400E+02
     26.949  0.0000E+00  0.0000E+00  0.2400E+02  0.2400E+02
