       N       E                     dE             d eps       ncg     rms          rms(c)
DAV:   1     0.337538625878E+03    0.33754E+03   -0.22005E+04  7272   0.175E+03
DAV:   2    -0.818854150789E+01   -0.34573E+03   -0.33448E+03  6280   0.516E+02
DAV:   3    -0.186963650818E+02   -0.10508E+02   -0.10263E+02  7440   0.110E+02
DAV:   4    -0.188602447853E+02   -0.16388E+00   -0.16382E+00  6864   0.133E+01
DAV:   5    -0.188656285486E+02   -0.53838E-02   -0.53837E-02  7520   0.249E+00    0.166E+01
DAV:   6    -0.218062072198E+02   -0.29406E+01   -0.39794E+01  7144   0.104E+02    0.212E+01
DAV:   7    -0.164500927870E+02    0.53561E+01   -0.14647E+01  7136   0.622E+01    0.214E+00
DAV:   8    -0.164634459722E+02   -0.13353E-01   -0.39119E-01  7240   0.628E+00    0.125E+00
DAV:   9    -0.164484587624E+02    0.14987E-01   -0.52139E-02  7424   0.325E+00    0.287E-01
DAV:  10    -0.164485747966E+02   -0.11603E-03   -0.15721E-03  6960   0.419E-01    0.134E-01
DAV:  11    -0.164485071255E+02    0.67671E-04   -0.57385E-04  8160   0.330E-01    0.707E-02
DAV:  12    -0.164485525259E+02   -0.45400E-04   -0.48962E-05  7392   0.804E-02    0.215E-02
DAV:  13    -0.164485582850E+02   -0.57590E-05   -0.16579E-05  8336   0.469E-02    0.110E-02
DAV:  14    -0.164485605948E+02   -0.23098E-05   -0.26924E-06  8408   0.191E-02    0.487E-03
DAV:  15    -0.164485608856E+02   -0.29085E-06   -0.87916E-07  8336   0.119E-02    0.194E-03
DAV:  16    -0.164485610169E+02   -0.13133E-06   -0.17455E-07  8496   0.506E-03    0.633E-04
DAV:  17    -0.164485610763E+02   -0.59326E-07   -0.15172E-08  4096   0.156E-03    0.509E-04
DAV:  18    -0.164485610898E+02   -0.13500E-07   -0.71263E-09  3240   0.100E-03    0.204E-04
DAV:  19    -0.164485610998E+02   -0.10072E-07   -0.30261E-09  3192   0.501E-04    0.826E-05
DAV:  20    -0.164485611031E+02   -0.32860E-08   -0.67680E-10  3184   0.245E-04
   1 F= -.16448561E+02 E0= -.16448158E+02  d E =-.164486E+02  mag=    -0.0000
       N       E                     dE             d eps       ncg     rms          rms(c)
DAV:   1    -0.453503924682E+02   -0.28902E+02   -0.29265E+02  6144   0.297E+02    0.456E+01
DAV:   2    -0.375345907453E+02    0.78158E+01   -0.25010E+02  7136   0.217E+02    0.385E+01
DAV:   3    -0.180284635500E+02    0.19506E+02   -0.77943E+01  6992   0.132E+02    0.128E+01
DAV:   4    -0.167133209062E+02    0.13151E+01   -0.74573E+00  7264   0.391E+01    0.256E+00
DAV:   5    -0.165863491976E+02    0.12697E+00   -0.10353E+00  7072   0.153E+01    0.251E+00
DAV:   6    -0.165245328918E+02    0.61816E-01   -0.20099E-01  7072   0.672E+00    0.239E-01
DAV:   7    -0.165241675918E+02    0.36530E-03   -0.42631E-03  6688   0.790E-01    0.170E-01
DAV:   8    -0.165239047393E+02    0.26285E-03   -0.92033E-04  8224   0.418E-01    0.320E-02
DAV:   9    -0.165239001929E+02    0.45464E-05   -0.30325E-05  7504   0.561E-02    0.868E-03
DAV:  10    -0.165239003440E+02   -0.15106E-06   -0.41844E-06  8400   0.273E-02    0.336E-03
DAV:  11    -0.165239003546E+02   -0.10661E-07   -0.34385E-07  6896   0.833E-03    0.977E-04
DAV:  12    -0.165239002942E+02    0.60399E-07   -0.84619E-08  6760   0.400E-03    0.587E-04
DAV:  13    -0.165239003288E+02   -0.34537E-07   -0.11652E-08  3280   0.168E-03    0.474E-05
DAV:  14    -0.165239003221E+02    0.66502E-08   -0.11836E-09  3312   0.388E-04
   2 F= -.16523900E+02 E0= -.16523823E+02  d E =-.753392E-01  mag=     0.0000
       N       E                     dE             d eps       ncg     rms          rms(c)
DAV:   1    -0.224207484125E+02   -0.58968E+01   -0.53079E+01  6192   0.109E+02    0.247E+01
DAV:   2    -0.275321171435E+02   -0.51114E+01   -0.80633E+01  6704   0.148E+02    0.263E+01
DAV:   3    -0.166915930369E+02    0.10841E+02   -0.27821E+01  6944   0.840E+01    0.261E+00
DAV:   4    -0.166507991628E+02    0.40794E-01   -0.11194E+00  7888   0.105E+01    0.283E+00
DAV:   5    -0.165824137179E+02    0.68385E-01   -0.17712E-01  7136   0.620E+00    0.337E-01
DAV:   6    -0.165819045577E+02    0.50916E-03   -0.37050E-03  6672   0.606E-01    0.151E-01
DAV:   7    -0.165814914467E+02    0.41311E-03   -0.73806E-04  8176   0.293E-01    0.182E-02
DAV:   8    -0.165814966993E+02   -0.52526E-05   -0.12560E-04  7328   0.144E-01    0.306E-02
DAV:   9    -0.165814857799E+02    0.10919E-04   -0.24818E-05  7360   0.710E-02    0.411E-03
DAV:  10    -0.165814851795E+02    0.60039E-06   -0.10466E-06  7920   0.888E-03    0.635E-04
DAV:  11    -0.165814851536E+02    0.25822E-07   -0.39213E-08  6640   0.184E-03    0.328E-04
DAV:  12    -0.165814851839E+02   -0.30263E-07   -0.12996E-09  3376   0.439E-04    0.109E-04
DAV:  13    -0.165814851904E+02   -0.65202E-08   -0.71691E-10  3344   0.206E-04
   3 F= -.16581485E+02 E0= -.16581124E+02  d E =-.132924E+00  mag=     0.0000
       N       E                     dE             d eps       ncg     rms          rms(c)
DAV:   1    -0.168275548360E+02   -0.24607E+00   -0.57050E+00  7648   0.375E+01    0.455E+00
DAV:   2    -0.168034079143E+02    0.24147E-01   -0.16853E+00  7248   0.198E+01    0.396E+00
DAV:   3    -0.166309557647E+02    0.17245E+00   -0.64052E-01  7200   0.123E+01    0.157E+00
DAV:   4    -0.166014865392E+02    0.29469E-01   -0.61753E-02  7952   0.304E+00    0.197E-01
DAV:   5    -0.166008988586E+02    0.58768E-03   -0.50487E-03  6608   0.115E+00    0.851E-02
DAV:   6    -0.166008308398E+02    0.68019E-04   -0.25711E-04  7904   0.169E-01    0.265E-02
DAV:   7    -0.166008406757E+02   -0.98360E-05   -0.20797E-05  7040   0.456E-02    0.987E-03
DAV:   8    -0.166008389734E+02    0.17024E-05   -0.19945E-06  6912   0.166E-02    0.201E-03
DAV:   9    -0.166008387793E+02    0.19407E-06   -0.21136E-07  7040   0.587E-03    0.344E-04
DAV:  10    -0.166008387540E+02    0.25266E-07   -0.13632E-08  4224   0.180E-03    0.167E-04
DAV:  11    -0.166008387413E+02    0.12741E-07   -0.20876E-09  3248   0.716E-04    0.148E-05
DAV:  12    -0.166008387399E+02    0.14397E-08   -0.42307E-10  3216   0.218E-04
   4 F= -.16600839E+02 E0= -.16600813E+02  d E =-.193535E-01  mag=    -0.0000
       N       E                     dE             d eps       ncg     rms          rms(c)
DAV:   1    -0.168438485962E+02   -0.24301E+00   -0.57489E+00  7648   0.376E+01    0.472E+00
DAV:   2    -0.168371415869E+02    0.67070E-02   -0.19112E+00  7264   0.207E+01    0.418E+00
DAV:   3    -0.166364463241E+02    0.20070E+00   -0.70298E-01  7184   0.130E+01    0.149E+00
DAV:   4    -0.166094638119E+02    0.26983E-01   -0.52806E-02  7584   0.271E+00    0.183E-01
DAV:   5    -0.166090660595E+02    0.39775E-03   -0.47753E-03  6720   0.103E+00    0.708E-02
DAV:   6    -0.166090324061E+02    0.33653E-04   -0.20802E-04  8032   0.174E-01    0.255E-02
DAV:   7    -0.166090413353E+02   -0.89292E-05   -0.16104E-05  7312   0.479E-02    0.508E-03
DAV:   8    -0.166090405484E+02    0.78684E-06   -0.11280E-06  7344   0.141E-02    0.151E-03
DAV:   9    -0.166090403973E+02    0.15113E-06   -0.82971E-08  7376   0.456E-03    0.226E-04
DAV:  10    -0.166090403772E+02    0.20061E-07   -0.61612E-09  3536   0.115E-03    0.116E-04
DAV:  11    -0.166090403699E+02    0.73223E-08   -0.18563E-09  3280   0.715E-04
   5 F= -.16609040E+02 E0= -.16609198E+02  d E =-.275552E-01  mag=    -0.0000
       N       E                     dE             d eps       ncg     rms          rms(c)
DAV:   1    -0.166558921830E+02   -0.46852E-01   -0.11134E+00  7728   0.166E+01    0.211E+00
DAV:   2    -0.166552002501E+02    0.69193E-03   -0.37123E-01  7248   0.940E+00    0.187E+00
DAV:   3    -0.166150186572E+02    0.40182E-01   -0.13951E-01  7216   0.584E+00    0.644E-01
DAV:   4    -0.166096635032E+02    0.53552E-02   -0.97072E-03  7552   0.123E+00    0.868E-02
DAV:   5    -0.166096062912E+02    0.57212E-04   -0.10263E-03  6704   0.432E-01    0.282E-02
DAV:   6    -0.166096010701E+02    0.52211E-05   -0.42236E-05  8032   0.965E-02    0.111E-02
DAV:   7    -0.166096019998E+02   -0.92977E-06   -0.30556E-06  7360   0.224E-02    0.194E-03
DAV:   8    -0.166096018047E+02    0.19513E-06   -0.32895E-07  8272   0.107E-02    0.576E-04
DAV:   9    -0.166096017719E+02    0.32770E-07   -0.13823E-08  3680   0.165E-03    0.114E-04
DAV:  10    -0.166096017638E+02    0.80927E-08   -0.23493E-09  3440   0.724E-04
   6 F= -.16609602E+02 E0= -.16609825E+02  d E =-.281166E-01  mag=     0.0000
       N       E                     dE             d eps       ncg     rms          rms(c)
DAV:   1    -0.169821492748E+02   -0.37255E+00   -0.88950E+00  6720   0.306E+01    0.506E+00
DAV:   2    -0.168396518571E+02    0.14250E+00   -0.13881E+00  7232   0.192E+01    0.415E+00
DAV:   3    -0.166729992884E+02    0.16665E+00   -0.61494E-01  7264   0.120E+01    0.193E+00
DAV:   4    -0.166224057760E+02    0.50594E-01   -0.92110E-02  8528   0.423E+00    0.200E-01
DAV:   5    -0.166222131490E+02    0.19263E-03   -0.88652E-03  6528   0.148E+00    0.798E-02
DAV:   6    -0.166221850678E+02    0.28081E-04   -0.28054E-04  7520   0.188E-01    0.315E-02
DAV:   7    -0.166221987051E+02   -0.13637E-04   -0.25782E-05  7712   0.551E-02    0.130E-02
DAV:   8    -0.166221974976E+02    0.12075E-05   -0.44107E-06  7600   0.401E-02    0.256E-03
DAV:   9    -0.166221975565E+02   -0.58880E-07   -0.58043E-07  7104   0.106E-02    0.638E-04
DAV:  10    -0.166221975910E+02   -0.34469E-07   -0.40193E-08  6688   0.333E-03    0.321E-04
DAV:  11    -0.166221975988E+02   -0.77962E-08   -0.49111E-09  3248   0.116E-03
   7 F= -.16622198E+02 E0= -.16622189E+02  d E =-.125958E-01  mag=     0.0000
       N       E                     dE             d eps       ncg     rms          rms(c)
DAV:   1    -0.169858044462E+02   -0.36361E+00   -0.90968E+00  6752   0.305E+01    0.503E+00
DAV:   2    -0.168190072760E+02    0.16680E+00   -0.12024E+00  7272   0.181E+01    0.389E+00
DAV:   3    -0.166803440775E+02    0.13866E+00   -0.55784E-01  7240   0.114E+01    0.194E+00
DAV:   4    -0.166301178160E+02    0.50226E-01   -0.91844E-02  8456   0.427E+00    0.181E-01
DAV:   5    -0.166299717206E+02    0.14610E-03   -0.78655E-03  6584   0.132E+00    0.667E-02
DAV:   6    -0.166299822555E+02   -0.10535E-04   -0.22310E-04  7880   0.181E-01    0.289E-02
DAV:   7    -0.166299962452E+02   -0.13990E-04   -0.16650E-05  7384   0.407E-02    0.830E-03
DAV:   8    -0.166299958920E+02    0.35316E-06   -0.21442E-06  7128   0.233E-02    0.146E-03
DAV:   9    -0.166299959370E+02   -0.44956E-07   -0.28268E-07  6944   0.882E-03    0.498E-04
DAV:  10    -0.166299959458E+02   -0.87939E-08   -0.15652E-08  4480   0.169E-03
   8 F= -.16629996E+02 E0= -.16630330E+02  d E =-.203942E-01  mag=    -0.0000
       N       E                     dE             d eps       ncg     rms          rms(c)
DAV:   1    -0.179862038337E+02   -0.13562E+01   -0.36110E+01  6640   0.603E+01    0.968E+00
DAV:   2    -0.172647946229E+02    0.72141E+00   -0.39278E+00  7328   0.333E+01    0.708E+00
DAV:   3    -0.168301396010E+02    0.43466E+00   -0.18550E+00  7216   0.206E+01    0.392E+00
DAV:   4    -0.166225628361E+02    0.20758E+00   -0.40137E-01  8480   0.901E+00    0.388E-01
DAV:   5    -0.166217207708E+02    0.84207E-03   -0.32583E-02  6576   0.263E+00    0.160E-01
DAV:   6    -0.166216556251E+02    0.65146E-04   -0.10680E-03  7264   0.323E-01    0.589E-02
DAV:   7    -0.166217151258E+02   -0.59501E-04   -0.83603E-05  7760   0.803E-02    0.226E-02
DAV:   8    -0.166217104765E+02    0.46493E-05   -0.11209E-05  7248   0.534E-02    0.401E-03
DAV:   9    -0.166217106084E+02   -0.13197E-06   -0.10631E-06  7200   0.130E-02    0.108E-03
DAV:  10    -0.166217106641E+02   -0.55682E-07   -0.46173E-08  7528   0.349E-03    0.198E-04
DAV:  11    -0.166217106691E+02   -0.50022E-08   -0.63002E-09  3640   0.106E-03
   9 F= -.16621711E+02 E0= -.16621671E+02  d E =-.121089E-01  mag=    -0.0000
       N       E                     dE             d eps       ncg     rms          rms(c)
DAV:   1    -0.174283641667E+02   -0.80665E+00   -0.20875E+01  6592   0.440E+01    0.755E+00
DAV:   2    -0.169881498081E+02    0.44021E+00   -0.19328E+00  7056   0.220E+01    0.501E+00
DAV:   3    -0.167518367571E+02    0.23631E+00   -0.10503E+00  7264   0.163E+01    0.305E+00
DAV:   4    -0.166312337819E+02    0.12060E+00   -0.21163E-01  8352   0.631E+00    0.314E-01
DAV:   5    -0.166312067107E+02    0.27071E-04   -0.20045E-02  6544   0.186E+00    0.130E-01
DAV:   6    -0.166311484324E+02    0.58278E-04   -0.81188E-04  7728   0.418E-01    0.440E-02
DAV:   7    -0.166311769511E+02   -0.28519E-04   -0.50066E-05  7984   0.995E-02    0.744E-03
DAV:   8    -0.166311752656E+02    0.16855E-05   -0.46996E-06  8432   0.419E-02    0.302E-03
DAV:   9    -0.166311750641E+02    0.20153E-06   -0.35340E-07  7344   0.797E-03    0.801E-04
DAV:  10    -0.166311750557E+02    0.83846E-08   -0.30099E-08  5960   0.302E-03
  10 F= -.16631175E+02 E0= -.16631384E+02  d E =-.215733E-01  mag=     0.0000
       N       E                     dE             d eps       ncg     rms          rms(c)
DAV:   1    -0.175836246857E+02   -0.95245E+00   -0.12831E+01  6544   0.460E+01    0.969E+00
DAV:   2    -0.180669670775E+02   -0.48334E+00   -0.10428E+01  6832   0.514E+01    0.103E+01
DAV:   3    -0.166771241679E+02    0.13898E+01   -0.39978E+00  7168   0.315E+01    0.175E+00
DAV:   4    -0.166407715291E+02    0.36353E-01   -0.89977E-02  7184   0.281E+00    0.567E-01
DAV:   5    -0.166379935726E+02    0.27780E-02   -0.11607E-02  7792   0.149E+00    0.115E-01
DAV:   6    -0.166378922106E+02    0.10136E-03   -0.66359E-04  7056   0.376E-01    0.344E-02
DAV:   7    -0.166378975235E+02   -0.53129E-05   -0.37903E-05  7808   0.947E-02    0.678E-03
DAV:   8    -0.166378957786E+02    0.17449E-05   -0.50317E-06  7232   0.428E-02    0.178E-03
DAV:   9    -0.166378954846E+02    0.29403E-06   -0.35750E-07  8128   0.857E-03    0.473E-04
DAV:  10    -0.166378954410E+02    0.43560E-07   -0.12401E-08  3816   0.149E-03    0.142E-04
DAV:  11    -0.166378954356E+02    0.53560E-08   -0.19056E-09  3312   0.666E-04
  11 F= -.16637895E+02 E0= -.16637968E+02  d E =-.672038E-02  mag=     0.0000
       N       E                     dE             d eps       ncg     rms          rms(c)
DAV:   1    -0.166575661420E+02   -0.19671E-01   -0.26799E-01  6512   0.684E+00    0.134E+00
DAV:   2    -0.166658829572E+02   -0.83168E-02   -0.20935E-01  6928   0.722E+00    0.148E+00
DAV:   3    -0.166391578037E+02    0.26725E-01   -0.75115E-02  7152   0.438E+00    0.285E-01
DAV:   4    -0.166381136501E+02    0.10442E-02   -0.22639E-03  7504   0.606E-01    0.452E-02
DAV:   5    -0.166381030282E+02    0.10622E-04   -0.20134E-04  6768   0.218E-01    0.144E-02
DAV:   6    -0.166381017792E+02    0.12490E-05   -0.10551E-05  7200   0.445E-02    0.543E-03
DAV:   7    -0.166381020634E+02   -0.28422E-06   -0.86934E-07  7552   0.132E-02    0.127E-03
DAV:   8    -0.166381020986E+02   -0.35168E-07   -0.59189E-08  6704   0.375E-03    0.345E-04
DAV:   9    -0.166381021228E+02   -0.24181E-07   -0.76361E-09  3360   0.163E-03    0.830E-05
DAV:  10    -0.166381021296E+02   -0.68476E-08   -0.11529E-09  3232   0.398E-04
  12 F= -.16638102E+02 E0= -.16638185E+02  d E =-.692707E-02  mag=    -0.0000
       N       E                     dE             d eps       ncg     rms          rms(c)
DAV:   1    -0.166362066268E+02    0.18955E-02   -0.18761E-01  7472   0.177E+01    0.618E-01
DAV:   2    -0.166423095247E+02   -0.61029E-02   -0.92782E-02  6432   0.401E+00    0.512E-01
DAV:   3    -0.166391488313E+02    0.31607E-02   -0.11344E-02  7312   0.173E+00    0.216E-01
DAV:   4    -0.166385553457E+02    0.59349E-03   -0.14414E-03  7184   0.544E-01    0.429E-02
DAV:   5    -0.166385298418E+02    0.25504E-04   -0.13823E-04  7152   0.171E-01    0.119E-02
DAV:   6    -0.166385288203E+02    0.10214E-05   -0.97346E-06  7424   0.478E-02    0.417E-03
DAV:   7    -0.166385292609E+02   -0.44055E-06   -0.96548E-07  6880   0.121E-02    0.991E-04
DAV:   8    -0.166385293663E+02   -0.10547E-06   -0.41771E-08  6768   0.279E-03    0.349E-04
DAV:   9    -0.166385293550E+02    0.11301E-07   -0.53749E-09  3312   0.134E-03    0.714E-05
DAV:  10    -0.166385293571E+02   -0.21109E-08   -0.11811E-09  3248   0.359E-04
  13 F= -.16638529E+02 E0= -.16638575E+02  d E =-.427228E-03  mag=     0.0000
       N       E                     dE             d eps       ncg     rms          rms(c)
DAV:   1    -0.166377838620E+02    0.74549E-03   -0.67108E-02  7536   0.106E+01    0.370E-01
DAV:   2    -0.166399567253E+02   -0.21729E-02   -0.32987E-02  6448   0.240E+00    0.307E-01
DAV:   3    -0.166388146152E+02    0.11421E-02   -0.41045E-03  7312   0.104E+00    0.129E-01
DAV:   4    -0.166386044823E+02    0.21013E-03   -0.50810E-04  7200   0.322E-01    0.251E-02
DAV:   5    -0.166385957804E+02    0.87019E-05   -0.48033E-05  7168   0.101E-01    0.712E-03
DAV:   6    -0.166385956328E+02    0.14761E-06   -0.34559E-06  7424   0.284E-02    0.248E-03
DAV:   7    -0.166385958683E+02   -0.23555E-06   -0.34152E-07  6848   0.722E-03    0.600E-04
DAV:   8    -0.166385959282E+02   -0.59838E-07   -0.13529E-08  4728   0.172E-03    0.208E-04
DAV:   9    -0.166385959231E+02    0.50259E-08   -0.39238E-09  3264   0.105E-03
  14 F= -.16638596E+02 E0= -.16638622E+02  d E =-.493794E-03  mag=     0.0000
       N       E                     dE             d eps       ncg     rms          rms(c)
DAV:   1    -0.166417349657E+02   -0.31390E-02   -0.47139E-02  6416   0.702E+00    0.622E-01
DAV:   2    -0.166450192599E+02   -0.32843E-02   -0.53732E-02  6816   0.372E+00    0.705E-01
DAV:   3    -0.166387368544E+02    0.62824E-02   -0.18308E-02  7088   0.220E+00    0.103E-01
DAV:   4    -0.166386272743E+02    0.10958E-03   -0.34389E-04  6800   0.235E-01    0.201E-02
DAV:   5    -0.166386219935E+02    0.52808E-05   -0.17367E-05  7360   0.426E-02    0.717E-03
DAV:   6    -0.166386210593E+02    0.93420E-06   -0.14988E-06  6816   0.201E-02    0.144E-03
DAV:   7    -0.166386210143E+02    0.44962E-07   -0.16315E-07  7696   0.721E-03    0.507E-04
DAV:   8    -0.166386209461E+02    0.68245E-07   -0.92672E-09  3664   0.121E-03    0.173E-04
DAV:   9    -0.166386209337E+02    0.12325E-07   -0.22042E-09  3328   0.611E-04    0.428E-05
DAV:  10    -0.166386209268E+02    0.69531E-08   -0.48718E-10  3264   0.251E-04
  15 F= -.16638621E+02 E0= -.16638639E+02  d E =-.250037E-04  mag=    -0.0000
       N       E                     dE             d eps       ncg     rms          rms(c)
DAV:   1    -0.166388998872E+02   -0.27895E-03   -0.41368E-03  6352   0.208E+00    0.184E-01
DAV:   2    -0.166391815687E+02   -0.28168E-03   -0.47450E-03  6816   0.110E+00    0.209E-01
DAV:   3    -0.166386355459E+02    0.54602E-03   -0.16154E-03  7088   0.650E-01    0.309E-02
DAV:   4    -0.166386265368E+02    0.90091E-05   -0.30735E-05  6800   0.709E-02    0.611E-03
DAV:   5    -0.166386263793E+02    0.15749E-06   -0.15529E-06  7344   0.127E-02    0.212E-03
DAV:   6    -0.166386265057E+02   -0.12638E-06   -0.13359E-07  6768   0.587E-03    0.406E-04
DAV:   7    -0.166386265023E+02    0.33579E-08   -0.12388E-08  3744   0.207E-03
  16 F= -.16638627E+02 E0= -.16638647E+02  d E =-.305792E-04  mag=    -0.0000
       N       E                     dE             d eps       ncg     rms          rms(c)
DAV:   1    -0.166387053697E+02   -0.78864E-04   -0.42409E-03  7760   0.182E+00    0.108E-01
DAV:   2    -0.166387461235E+02   -0.40754E-04   -0.15197E-03  6896   0.585E-01    0.877E-02
DAV:   3    -0.166386606336E+02    0.85490E-04   -0.29161E-04  7248   0.278E-01    0.397E-02
DAV:   4    -0.166386397078E+02    0.20926E-04   -0.49226E-05  7680   0.102E-01    0.525E-03
DAV:   5    -0.166386396195E+02    0.88352E-07   -0.52817E-06  6576   0.367E-02    0.193E-03
DAV:   6    -0.166386395684E+02    0.51027E-07   -0.36862E-07  7344   0.877E-03    0.101E-03
DAV:   7    -0.166386395702E+02   -0.17599E-08   -0.51468E-08  6448   0.324E-03
  17 F= -.16638640E+02 E0= -.16638658E+02  d E =-.130679E-04  mag=    -0.0000
       N       E                     dE             d eps       ncg     rms          rms(c)
DAV:   1    -0.166389562405E+02   -0.31667E-03   -0.19709E-02  7760   0.393E+00    0.232E-01
DAV:   2    -0.166391494056E+02   -0.19317E-03   -0.70482E-03  6912   0.126E+00    0.189E-01
DAV:   3    -0.166387504468E+02    0.39896E-03   -0.13505E-03  7248   0.598E-01    0.856E-02
DAV:   4    -0.166386527410E+02    0.97706E-04   -0.22901E-04  7696   0.220E-01    0.115E-02
DAV:   5    -0.166386519320E+02    0.80905E-06   -0.24594E-05  6624   0.792E-02    0.416E-03
DAV:   6    -0.166386516879E+02    0.24407E-06   -0.17174E-06  7312   0.189E-02    0.219E-03
DAV:   7    -0.166386516925E+02   -0.46348E-08   -0.23849E-07  7200   0.698E-03    0.657E-04
DAV:   8    -0.166386517205E+02   -0.27973E-07   -0.12428E-08  3648   0.125E-03    0.180E-04
DAV:   9    -0.166386517245E+02   -0.39718E-08   -0.27274E-09  3248   0.889E-04
  18 F= -.16638652E+02 E0= -.16638668E+02  d E =-.252222E-04  mag=    -0.0000
       N       E                     dE             d eps       ncg     rms          rms(c)
DAV:   1    -0.166386870850E+02   -0.35365E-04   -0.72716E-03  7824   0.260E+00    0.123E-01
DAV:   2    -0.166387614072E+02   -0.74322E-04   -0.23823E-03  6368   0.682E-01    0.821E-02
DAV:   3    -0.166386991236E+02    0.62284E-04   -0.26101E-04  7328   0.253E-01    0.518E-02
DAV:   4    -0.166386631936E+02    0.35930E-04   -0.82497E-05  8000   0.140E-01    0.676E-03
DAV:   5    -0.166386630138E+02    0.17980E-06   -0.69795E-06  6656   0.416E-02    0.245E-03
DAV:   6    -0.166386629277E+02    0.86112E-07   -0.27655E-07  8160   0.917E-03    0.879E-04
DAV:   7    -0.166386629111E+02    0.16613E-07   -0.32146E-08  5504   0.236E-03    0.257E-04
DAV:   8    -0.166386629020E+02    0.91450E-08   -0.22297E-09  3168   0.669E-04
  19 F= -.16638663E+02 E0= -.16638676E+02  d E =-.111775E-04  mag=     0.0000
       N       E                     dE             d eps       ncg     rms          rms(c)
DAV:   1    -0.166386715201E+02   -0.86090E-05   -0.17643E-03  7888   0.128E+00    0.608E-02
DAV:   2    -0.166386895151E+02   -0.17995E-04   -0.57487E-04  6384   0.336E-01    0.405E-02
DAV:   3    -0.166386741026E+02    0.15413E-04   -0.63535E-05  7328   0.125E-01    0.255E-02
DAV:   4    -0.166386654526E+02    0.86500E-05   -0.19914E-05  8016   0.690E-02    0.330E-03
DAV:   5    -0.166386654220E+02    0.30564E-07   -0.16857E-06  6656   0.205E-02    0.121E-03
DAV:   6    -0.166386653936E+02    0.28387E-07   -0.66685E-08  7712   0.450E-03    0.432E-04
DAV:   7    -0.166386653825E+02    0.11084E-07   -0.68546E-09  3248   0.116E-03    0.121E-04
DAV:   8    -0.166386653780E+02    0.45466E-08   -0.13580E-09  3120   0.512E-04
  20 F= -.16638665E+02 E0= -.16638678E+02  d E =-.136535E-04  mag=    -0.0000
       N       E                     dE             d eps       ncg     rms          rms(c)
DAV:   1    -0.166389301447E+02   -0.26476E-03   -0.46009E-03  6432   0.233E+00    0.189E-01
DAV:   2    -0.166392395064E+02   -0.30936E-03   -0.51115E-03  6864   0.113E+00    0.212E-01
DAV:   3    -0.166386749743E+02    0.56453E-03   -0.16964E-03  7088   0.668E-01    0.331E-02
DAV:   4    -0.166386659528E+02    0.90215E-05   -0.31883E-05  6736   0.722E-02    0.798E-03
DAV:   5    -0.166386655816E+02    0.37114E-06   -0.17908E-06  7536   0.127E-02    0.218E-03
DAV:   6    -0.166386657497E+02   -0.16812E-06   -0.12425E-07  6848   0.592E-03    0.352E-04
DAV:   7    -0.166386657586E+02   -0.88748E-08   -0.10282E-08  3552   0.153E-03
  21 F= -.16638666E+02 E0= -.16638678E+02  d E =-.380635E-06  mag=    -0.0000
       N       E                     dE             d eps       ncg     rms          rms(c)
DAV:   1    -0.166387241140E+02   -0.58364E-04   -0.10026E-03  6400   0.109E+00    0.885E-02
DAV:   2    -0.166387953149E+02   -0.71201E-04   -0.11198E-03  6864   0.528E-01    0.993E-02
DAV:   3    -0.166386696612E+02    0.12565E-03   -0.37094E-04  7088   0.313E-01    0.154E-02
DAV:   4    -0.166386673294E+02    0.23318E-05   -0.68859E-06  6736   0.334E-02    0.378E-03
DAV:   5    -0.166386669584E+02    0.37098E-06   -0.38945E-07  7552   0.589E-03    0.102E-03
DAV:   6    -0.166386668653E+02    0.93146E-07   -0.26260E-08  6144   0.273E-03    0.159E-04
DAV:   7    -0.166386668593E+02    0.59772E-08   -0.24116E-09  3280   0.712E-04
  22 F= -.16638667E+02 E0= -.16638679E+02  d E =-.148131E-05  mag=    -0.0000
