   6   6   0   0
  0.1243257E+02  0.5457598E-09  0.5457598E-09  0.3817134E-09  0.5000000E-15
  1.000000000000000E-004
  CAR 
 unknown system                          
     24.51439055    -58.53346774  301      8.88923455      1.00000000
    -58.533  0.0000E+00  0.0000E+00  0.0000E+00  0.0000E+00
    -58.257  0.0000E+00  0.0000E+00  0.0000E+00  0.0000E+00
    -57.980  0.0000E+00  0.0000E+00  0.0000E+00  0.0000E+00
    -57.703  0.0000E+00  0.0000E+00  0.0000E+00  0.0000E+00
    -57.426  0.0000E+00  0.0000E+00  0.0000E+00  0.0000E+00
    -57.149  0.0000E+00  0.0000E+00  0.0000E+00  0.0000E+00
    -56.873  0.0000E+00  0.0000E+00  0.0000E+00  0.0000E+00
    -56.596  0.0000E+00  0.0000E+00  0.0000E+00  0.0000E+00
    -56.319  0.0000E+00  0.0000E+00  0.0000E+00  0.0000E+00
    -56.042  0.0000E+00  0.0000E+00  0.0000E+00  0.0000E+00
    -55.765  0.0000E+00  0.0000E+00  0.0000E+00  0.0000E+00
    -55.488  0.0000E+00  0.0000E+00  0.0000E+00  0.0000E+00
    -55.212  0.0000E+00  0.0000E+00  0.0000E+00  0.0000E+00
    -54.935  0.0000E+00  0.0000E+00  0.0000E+00  0.0000E+00
    -54.658  0.0000E+00  0.0000E+00  0.5000E+01  0.5000E+01
    -54.381  0.0000E+00  0.0000E+00  0.9000E+01  0.9000E+01
    -54.104  0.0000E+00  0.0000E+00  0.9000E+01  0.9000E+01
    -53.827  0.0000E+00  0.0000E+00  0.9000E+01  0.9000E+01
    -53.551  0.0000E+00  0.0000E+00  0.9000E+01  0.9000E+01
    -53.274  0.0000E+00  0.0000E+00  0.9000E+01  0.9000E+01
    -52.997  0.0000E+00  0.0000E+00  0.9000E+01  0.9000E+01
    -52.720  0.0000E+00  0.0000E+00  0.9000E+01  0.9000E+01
    -52.443  0.0000E+00  0.0000E+00  0.9000E+01  0.9000E+01
    -52.166  0.0000E+00  0.0000E+00  0.9000E+01  0.9000E+01
    -51.890  0.0000E+00  0.0000E+00  0.9000E+01  0.9000E+01
    -51.613  0.0000E+00  0.0000E+00  0.9000E+01  0.9000E+01
    -51.336  0.0000E+00  0.0000E+00  0.9000E+01  0.9000E+01
    -51.059  0.0000E+00  0.0000E+00  0.9000E+01  0.9000E+01
    -50.782  0.0000E+00  0.0000E+00  0.9000E+01  0.9000E+01
    -50.506  0.0000E+00  0.0000E+00  0.9000E+01  0.9000E+01
    -50.229  0.0000E+00  0.0000E+00  0.9000E+01  0.9000E+01
    -49.952  0.0000E+00  0.0000E+00  0.9000E+01  0.9000E+01
    -49.675  0.0000E+00  0.0000E+00  0.9000E+01  0.9000E+01
    -49.398  0.0000E+00  0.0000E+00  0.9000E+01  0.9000E+01
    -49.121  0.0000E+00  0.0000E+00  0.9000E+01  0.9000E+01
    -48.845  0.0000E+00  0.0000E+00  0.9000E+01  0.9000E+01
    -48.568  0.0000E+00  0.0000E+00  0.9000E+01  0.9000E+01
    -48.291  0.0000E+00  0.0000E+00  0.9000E+01  0.9000E+01
    -48.014  0.0000E+00  0.0000E+00  0.9000E+01  0.9000E+01
    -47.737  0.0000E+00  0.0000E+00  0.9000E+01  0.9000E+01
    -47.460  0.0000E+00  0.0000E+00  0.9000E+01  0.9000E+01
    -47.184  0.0000E+00  0.0000E+00  0.9000E+01  0.9000E+01
    -46.907  0.0000E+00  0.0000E+00  0.9000E+01  0.9000E+01
    -46.630  0.0000E+00  0.0000E+00  0.9000E+01  0.9000E+01
    -46.353  0.0000E+00  0.0000E+00  0.9000E+01  0.9000E+01
    -46.076  0.0000E+00  0.0000E+00  0.9000E+01  0.9000E+01
    -45.799  0.0000E+00  0.0000E+00  0.9000E+01  0.9000E+01
    -45.523  0.0000E+00  0.0000E+00  0.9000E+01  0.9000E+01
    -45.246  0.0000E+00  0.0000E+00  0.9000E+01  0.9000E+01
    -44.969  0.0000E+00  0.0000E+00  0.9000E+01  0.9000E+01
    -44.692  0.0000E+00  0.0000E+00  0.9000E+01  0.9000E+01
    -44.415  0.0000E+00  0.0000E+00  0.9000E+01  0.9000E+01
    -44.139  0.0000E+00  0.0000E+00  0.9000E+01  0.9000E+01
    -43.862  0.0000E+00  0.0000E+00  0.9000E+01  0.9000E+01
    -43.585  0.0000E+00  0.0000E+00  0.9000E+01  0.9000E+01
    -43.308  0.0000E+00  0.0000E+00  0.9000E+01  0.9000E+01
    -43.031  0.0000E+00  0.0000E+00  0.9000E+01  0.9000E+01
    -42.754  0.0000E+00  0.0000E+00  0.9000E+01  0.9000E+01
    -42.478  0.0000E+00  0.0000E+00  0.9000E+01  0.9000E+01
    -42.201  0.0000E+00  0.0000E+00  0.9000E+01  0.9000E+01
    -41.924  0.0000E+00  0.0000E+00  0.9000E+01  0.9000E+01
    -41.647  0.0000E+00  0.0000E+00  0.9000E+01  0.9000E+01
    -41.370  0.0000E+00  0.0000E+00  0.9000E+01  0.9000E+01
    -41.093  0.0000E+00  0.0000E+00  0.9000E+01  0.9000E+01
    -40.817  0.0000E+00  0.0000E+00  0.9000E+01  0.9000E+01
    -40.540  0.0000E+00  0.0000E+00  0.9000E+01  0.9000E+01
    -40.263  0.0000E+00  0.0000E+00  0.9000E+01  0.9000E+01
    -39.986  0.0000E+00  0.0000E+00  0.9000E+01  0.9000E+01
    -39.709  0.0000E+00  0.0000E+00  0.9000E+01  0.9000E+01
    -39.432  0.0000E+00  0.0000E+00  0.9000E+01  0.9000E+01
    -39.156  0.0000E+00  0.0000E+00  0.9000E+01  0.9000E+01
    -38.879  0.0000E+00  0.0000E+00  0.9000E+01  0.9000E+01
    -38.602  0.0000E+00  0.0000E+00  0.9000E+01  0.9000E+01
    -38.325  0.0000E+00  0.0000E+00  0.9000E+01  0.9000E+01
    -38.048  0.0000E+00  0.0000E+00  0.9000E+01  0.9000E+01
    -37.772  0.0000E+00  0.0000E+00  0.9000E+01  0.9000E+01
    -37.495  0.0000E+00  0.0000E+00  0.9000E+01  0.9000E+01
    -37.218  0.0000E+00  0.0000E+00  0.9000E+01  0.9000E+01
    -36.941  0.0000E+00  0.0000E+00  0.9000E+01  0.9000E+01
    -36.664  0.0000E+00  0.0000E+00  0.9000E+01  0.9000E+01
    -36.387  0.0000E+00  0.0000E+00  0.9000E+01  0.9000E+01
    -36.111  0.0000E+00  0.0000E+00  0.9000E+01  0.9000E+01
    -35.834  0.0000E+00  0.0000E+00  0.9000E+01  0.9000E+01
    -35.557  0.0000E+00  0.0000E+00  0.9000E+01  0.9000E+01
    -35.280  0.0000E+00  0.0000E+00  0.9000E+01  0.9000E+01
    -35.003  0.0000E+00  0.0000E+00  0.9000E+01  0.9000E+01
    -34.726  0.0000E+00  0.0000E+00  0.9000E+01  0.9000E+01
    -34.450  0.0000E+00  0.0000E+00  0.9000E+01  0.9000E+01
    -34.173  0.0000E+00  0.0000E+00  0.9000E+01  0.9000E+01
    -33.896  0.0000E+00  0.0000E+00  0.9000E+01  0.9000E+01
    -33.619  0.0000E+00  0.0000E+00  0.9000E+01  0.9000E+01
    -33.342  0.0000E+00  0.0000E+00  0.9000E+01  0.9000E+01
    -33.065  0.0000E+00  0.0000E+00  0.9000E+01  0.9000E+01
    -32.789  0.0000E+00  0.0000E+00  0.9000E+01  0.9000E+01
    -32.512  0.0000E+00  0.0000E+00  0.9000E+01  0.9000E+01
    -32.235  0.0000E+00  0.0000E+00  0.9000E+01  0.9000E+01
    -31.958  0.0000E+00  0.0000E+00  0.9000E+01  0.9000E+01
    -31.681  0.0000E+00  0.0000E+00  0.9000E+01  0.9000E+01
    -31.405  0.0000E+00  0.0000E+00  0.9000E+01  0.9000E+01
    -31.128  0.0000E+00  0.0000E+00  0.9000E+01  0.9000E+01
    -30.851  0.0000E+00  0.0000E+00  0.9000E+01  0.9000E+01
    -30.574  0.0000E+00  0.0000E+00  0.9000E+01  0.9000E+01
    -30.297  0.0000E+00  0.0000E+00  0.9000E+01  0.9000E+01
    -30.020  0.0000E+00  0.0000E+00  0.9000E+01  0.9000E+01
    -29.744  0.0000E+00  0.0000E+00  0.9000E+01  0.9000E+01
    -29.467  0.0000E+00  0.0000E+00  0.9000E+01  0.9000E+01
    -29.190  0.0000E+00  0.0000E+00  0.9000E+01  0.9000E+01
    -28.913  0.0000E+00  0.0000E+00  0.9000E+01  0.9000E+01
    -28.636  0.0000E+00  0.0000E+00  0.9000E+01  0.9000E+01
    -28.359  0.0000E+00  0.0000E+00  0.9000E+01  0.9000E+01
    -28.083  0.0000E+00  0.0000E+00  0.9000E+01  0.9000E+01
    -27.806  0.0000E+00  0.0000E+00  0.9000E+01  0.9000E+01
    -27.529  0.0000E+00  0.0000E+00  0.9000E+01  0.9000E+01
    -27.252  0.0000E+00  0.0000E+00  0.9000E+01  0.9000E+01
    -26.975  0.0000E+00  0.0000E+00  0.9000E+01  0.9000E+01
    -26.698  0.0000E+00  0.0000E+00  0.9000E+01  0.9000E+01
    -26.422  0.0000E+00  0.0000E+00  0.9000E+01  0.9000E+01
    -26.145  0.0000E+00  0.0000E+00  0.9000E+01  0.9000E+01
    -25.868  0.0000E+00  0.0000E+00  0.9000E+01  0.9000E+01
    -25.591  0.0000E+00  0.0000E+00  0.9000E+01  0.9000E+01
    -25.314  0.0000E+00  0.0000E+00  0.9000E+01  0.9000E+01
    -25.037  0.0000E+00  0.0000E+00  0.9000E+01  0.9000E+01
    -24.761  0.0000E+00  0.0000E+00  0.9000E+01  0.9000E+01
    -24.484  0.0000E+00  0.0000E+00  0.9000E+01  0.9000E+01
    -24.207  0.0000E+00  0.0000E+00  0.9000E+01  0.9000E+01
    -23.930  0.0000E+00  0.0000E+00  0.9000E+01  0.9000E+01
    -23.653  0.0000E+00  0.0000E+00  0.9000E+01  0.9000E+01
    -23.377  0.0000E+00  0.0000E+00  0.9000E+01  0.9000E+01
    -23.100  0.0000E+00  0.0000E+00  0.9000E+01  0.9000E+01
    -22.823  0.0000E+00  0.0000E+00  0.9000E+01  0.9000E+01
    -22.546  0.0000E+00  0.0000E+00  0.9000E+01  0.9000E+01
    -22.269  0.0000E+00  0.0000E+00  0.9000E+01  0.9000E+01
    -21.992  0.0000E+00  0.0000E+00  0.9000E+01  0.9000E+01
    -21.716  0.0000E+00  0.0000E+00  0.9000E+01  0.9000E+01
    -21.439  0.0000E+00  0.0000E+00  0.9000E+01  0.9000E+01
    -21.162  0.0000E+00  0.0000E+00  0.9000E+01  0.9000E+01
    -20.885  0.0000E+00  0.0000E+00  0.9000E+01  0.9000E+01
    -20.608  0.0000E+00  0.0000E+00  0.9000E+01  0.9000E+01
    -20.331  0.0000E+00  0.0000E+00  0.9000E+01  0.9000E+01
    -20.055  0.0000E+00  0.0000E+00  0.9000E+01  0.9000E+01
    -19.778  0.0000E+00  0.0000E+00  0.9000E+01  0.9000E+01
    -19.501  0.0000E+00  0.0000E+00  0.9000E+01  0.9000E+01
    -19.224  0.0000E+00  0.0000E+00  0.9000E+01  0.9000E+01
    -18.947  0.0000E+00  0.0000E+00  0.9000E+01  0.9000E+01
    -18.670  0.0000E+00  0.0000E+00  0.9000E+01  0.9000E+01
    -18.394  0.0000E+00  0.0000E+00  0.9000E+01  0.9000E+01
    -18.117  0.0000E+00  0.0000E+00  0.9000E+01  0.9000E+01
    -17.840  0.0000E+00  0.0000E+00  0.9000E+01  0.9000E+01
    -17.563  0.0000E+00  0.0000E+00  0.9000E+01  0.9000E+01
    -17.286  0.0000E+00  0.0000E+00  0.9000E+01  0.9000E+01
    -17.010  0.0000E+00  0.0000E+00  0.9000E+01  0.9000E+01
    -16.733  0.0000E+00  0.0000E+00  0.9000E+01  0.9000E+01
    -16.456  0.0000E+00  0.0000E+00  0.9000E+01  0.9000E+01
    -16.179  0.0000E+00  0.0000E+00  0.9000E+01  0.9000E+01
    -15.902  0.0000E+00  0.0000E+00  0.9000E+01  0.9000E+01
    -15.625  0.0000E+00  0.0000E+00  0.9000E+01  0.9000E+01
    -15.349  0.0000E+00  0.0000E+00  0.9000E+01  0.9000E+01
    -15.072  0.0000E+00  0.0000E+00  0.9000E+01  0.9000E+01
    -14.795  0.0000E+00  0.0000E+00  0.9000E+01  0.9000E+01
    -14.518  0.0000E+00  0.0000E+00  0.9000E+01  0.9000E+01
    -14.241  0.0000E+00  0.0000E+00  0.9000E+01  0.9000E+01
    -13.964  0.0000E+00  0.0000E+00  0.9000E+01  0.9000E+01
    -13.688  0.0000E+00  0.0000E+00  0.9000E+01  0.9000E+01
    -13.411  0.0000E+00  0.0000E+00  0.9000E+01  0.9000E+01
    -13.134  0.0000E+00  0.0000E+00  0.9000E+01  0.9000E+01
    -12.857  0.0000E+00  0.0000E+00  0.9000E+01  0.9000E+01
    -12.580  0.0000E+00  0.0000E+00  0.9000E+01  0.9000E+01
    -12.303  0.0000E+00  0.0000E+00  0.9000E+01  0.9000E+01
    -12.027  0.0000E+00  0.0000E+00  0.9000E+01  0.9000E+01
    -11.750  0.0000E+00  0.0000E+00  0.9000E+01  0.9000E+01
    -11.473  0.0000E+00  0.0000E+00  0.9000E+01  0.9000E+01
    -11.196  0.0000E+00  0.0000E+00  0.9000E+01  0.9000E+01
    -10.919  0.0000E+00  0.0000E+00  0.9000E+01  0.9000E+01
    -10.643  0.0000E+00  0.0000E+00  0.9000E+01  0.9000E+01
    -10.366  0.0000E+00  0.0000E+00  0.9000E+01  0.9000E+01
    -10.089  0.0000E+00  0.0000E+00  0.9000E+01  0.9000E+01
     -9.812  0.0000E+00  0.0000E+00  0.9000E+01  0.9000E+01
     -9.535  0.0000E+00  0.0000E+00  0.9000E+01  0.9000E+01
     -9.258  0.0000E+00  0.0000E+00  0.9000E+01  0.9000E+01
     -8.982  0.0000E+00  0.0000E+00  0.9000E+01  0.9000E+01
     -8.705  0.0000E+00  0.0000E+00  0.9000E+01  0.9000E+01
     -8.428  0.0000E+00  0.0000E+00  0.9000E+01  0.9000E+01
     -8.151  0.0000E+00  0.0000E+00  0.9000E+01  0.9000E+01
     -7.874  0.0000E+00  0.0000E+00  0.9000E+01  0.9000E+01
     -7.597  0.0000E+00  0.0000E+00  0.9000E+01  0.9000E+01
     -7.321  0.0000E+00  0.0000E+00  0.9000E+01  0.9000E+01
     -7.044  0.0000E+00  0.0000E+00  0.9000E+01  0.9000E+01
     -6.767  0.0000E+00  0.0000E+00  0.9000E+01  0.9000E+01
     -6.490  0.0000E+00  0.0000E+00  0.9000E+01  0.9000E+01
     -6.213  0.0000E+00  0.0000E+00  0.9000E+01  0.9000E+01
     -5.936  0.0000E+00  0.0000E+00  0.9000E+01  0.9000E+01
     -5.660  0.0000E+00  0.0000E+00  0.9000E+01  0.9000E+01
     -5.383  0.0000E+00  0.0000E+00  0.9000E+01  0.9000E+01
     -5.106  0.0000E+00  0.0000E+00  0.9000E+01  0.9000E+01
     -4.829  0.0000E+00  0.0000E+00  0.9000E+01  0.9000E+01
     -4.552  0.0000E+00  0.0000E+00  0.9000E+01  0.9000E+01
     -4.276  0.0000E+00  0.0000E+00  0.9000E+01  0.9000E+01
     -3.999  0.0000E+00  0.0000E+00  0.9000E+01  0.9000E+01
     -3.722  0.0000E+00  0.0000E+00  0.9000E+01  0.9000E+01
     -3.445  0.0000E+00  0.0000E+00  0.9000E+01  0.9000E+01
     -3.168  0.0000E+00  0.0000E+00  0.9000E+01  0.9000E+01
     -2.891  0.0000E+00  0.0000E+00  0.9000E+01  0.9000E+01
     -2.615  0.0000E+00  0.0000E+00  0.9000E+01  0.9000E+01
     -2.338  0.0000E+00  0.0000E+00  0.9000E+01  0.9000E+01
     -2.061  0.1135E-01  0.1135E-01  0.9000E+01  0.9000E+01
     -1.784  0.1360E+00  0.1360E+00  0.9020E+01  0.9020E+01
     -1.507  0.1989E+00  0.1989E+00  0.9068E+01  0.9068E+01
     -1.230  0.2913E+00  0.2913E+00  0.9134E+01  0.9134E+01
     -0.954  0.3199E+00  0.3199E+00  0.9221E+01  0.9221E+01
     -0.677  0.3184E+00  0.3184E+00  0.9309E+01  0.9309E+01
     -0.400  0.3450E+00  0.3450E+00  0.9400E+01  0.9400E+01
     -0.123  0.5098E+00  0.5098E+00  0.9518E+01  0.9518E+01
      0.154  0.4426E+00  0.4426E+00  0.9653E+01  0.9653E+01
      0.431  0.4377E+00  0.4377E+00  0.9771E+01  0.9771E+01
      0.707  0.3490E+00  0.3490E+00  0.9877E+01  0.9877E+01
      0.984  0.3374E+00  0.3374E+00  0.9970E+01  0.9970E+01
      1.261  0.4534E+00  0.4534E+00  0.1007E+02  0.1007E+02
      1.538  0.6329E+00  0.6329E+00  0.1023E+02  0.1023E+02
      1.815  0.6662E+00  0.6662E+00  0.1042E+02  0.1042E+02
      2.091  0.6249E+00  0.6249E+00  0.1059E+02  0.1059E+02
      2.368  0.7008E+00  0.7008E+00  0.1077E+02  0.1077E+02
      2.645  0.8980E+00  0.8980E+00  0.1099E+02  0.1099E+02
      2.922  0.7142E+00  0.7142E+00  0.1120E+02  0.1120E+02
      3.199  0.7484E+00  0.7484E+00  0.1141E+02  0.1141E+02
      3.476  0.7882E+00  0.7882E+00  0.1161E+02  0.1161E+02
      3.752  0.8026E+00  0.8026E+00  0.1185E+02  0.1185E+02
      4.029  0.1032E+01  0.1032E+01  0.1209E+02  0.1209E+02
      4.306  0.1736E+01  0.1736E+01  0.1247E+02  0.1247E+02
      4.583  0.1297E+01  0.1297E+01  0.1286E+02  0.1286E+02
      4.860  0.1314E+01  0.1314E+01  0.1322E+02  0.1322E+02
      5.137  0.1674E+01  0.1674E+01  0.1364E+02  0.1364E+02
      5.413  0.3509E+01  0.3509E+01  0.1429E+02  0.1429E+02
      5.690  0.5875E+01  0.5875E+01  0.1557E+02  0.1557E+02
      5.967  0.4818E+01  0.4818E+01  0.1665E+02  0.1665E+02
      6.244  0.3447E+01  0.3447E+01  0.1782E+02  0.1782E+02
      6.521  0.2603E+01  0.2603E+01  0.1891E+02  0.1891E+02
      6.798  0.3432E+01  0.3432E+01  0.2043E+02  0.2043E+02
      7.074  0.3499E+01  0.3499E+01  0.2180E+02  0.2180E+02
      7.351  0.8302E+01  0.8302E+01  0.2398E+02  0.2398E+02
      7.628  0.6645E+01  0.6645E+01  0.2602E+02  0.2602E+02
      7.905  0.2547E+01  0.2547E+01  0.2695E+02  0.2695E+02
      8.182  0.1566E+01  0.1566E+01  0.2738E+02  0.2738E+02
      8.458  0.1508E+01  0.1508E+01  0.2783E+02  0.2783E+02
      8.735  0.1430E+01  0.1430E+01  0.2829E+02  0.2829E+02
      9.012  0.1333E+01  0.1333E+01  0.2866E+02  0.2866E+02
      9.289  0.1283E+01  0.1283E+01  0.2903E+02  0.2903E+02
      9.566  0.8903E+00  0.8903E+00  0.2934E+02  0.2934E+02
      9.843  0.7389E+00  0.7389E+00  0.2956E+02  0.2956E+02
     10.119  0.8555E+00  0.8555E+00  0.2976E+02  0.2976E+02
     10.396  0.8514E+00  0.8514E+00  0.3000E+02  0.3000E+02
     10.673  0.9914E+00  0.9914E+00  0.3026E+02  0.3026E+02
     10.950  0.1193E+01  0.1193E+01  0.3056E+02  0.3056E+02
     11.227  0.1310E+01  0.1310E+01  0.3090E+02  0.3090E+02
     11.504  0.1268E+01  0.1268E+01  0.3127E+02  0.3127E+02
     11.780  0.1156E+01  0.1156E+01  0.3160E+02  0.3160E+02
     12.057  0.1112E+01  0.1112E+01  0.3192E+02  0.3192E+02
     12.334  0.1029E+01  0.1029E+01  0.3221E+02  0.3221E+02
     12.611  0.1137E+01  0.1137E+01  0.3251E+02  0.3251E+02
     12.888  0.1049E+01  0.1049E+01  0.3281E+02  0.3281E+02
     13.165  0.9115E+00  0.9115E+00  0.3309E+02  0.3309E+02
     13.441  0.8856E+00  0.8856E+00  0.3334E+02  0.3334E+02
     13.718  0.8075E+00  0.8075E+00  0.3357E+02  0.3357E+02
     13.995  0.9777E+00  0.9777E+00  0.3382E+02  0.3382E+02
     14.272  0.1273E+01  0.1273E+01  0.3411E+02  0.3411E+02
     14.549  0.1360E+01  0.1360E+01  0.3446E+02  0.3446E+02
     14.825  0.9989E+00  0.9989E+00  0.3483E+02  0.3483E+02
     15.102  0.8125E+00  0.8125E+00  0.3506E+02  0.3506E+02
     15.379  0.1247E+01  0.1247E+01  0.3534E+02  0.3534E+02
     15.656  0.1230E+01  0.1230E+01  0.3571E+02  0.3571E+02
     15.933  0.1390E+01  0.1390E+01  0.3607E+02  0.3607E+02
     16.210  0.1217E+01  0.1217E+01  0.3644E+02  0.3644E+02
     16.486  0.1275E+01  0.1275E+01  0.3676E+02  0.3676E+02
     16.763  0.1512E+01  0.1512E+01  0.3718E+02  0.3718E+02
     17.040  0.1108E+01  0.1108E+01  0.3753E+02  0.3753E+02
     17.317  0.1122E+01  0.1122E+01  0.3783E+02  0.3783E+02
     17.594  0.1408E+01  0.1408E+01  0.3821E+02  0.3821E+02
     17.871  0.1386E+01  0.1386E+01  0.3859E+02  0.3859E+02
     18.147  0.1160E+01  0.1160E+01  0.3892E+02  0.3892E+02
     18.424  0.8461E+00  0.8461E+00  0.3920E+02  0.3920E+02
     18.701  0.6306E+00  0.6306E+00  0.3940E+02  0.3940E+02
     18.978  0.4951E+00  0.4951E+00  0.3956E+02  0.3956E+02
     19.255  0.4020E+00  0.4020E+00  0.3968E+02  0.3968E+02
     19.532  0.3931E+00  0.3931E+00  0.3980E+02  0.3980E+02
     19.808  0.3019E+00  0.3019E+00  0.3989E+02  0.3989E+02
     20.085  0.1225E+00  0.1225E+00  0.3994E+02  0.3994E+02
     20.362  0.1545E+00  0.1545E+00  0.3997E+02  0.3997E+02
     20.639  0.1772E-02  0.1772E-02  0.4000E+02  0.4000E+02
     20.916  0.0000E+00  0.0000E+00  0.4000E+02  0.4000E+02
     21.192  0.0000E+00  0.0000E+00  0.4000E+02  0.4000E+02
     21.469  0.0000E+00  0.0000E+00  0.4000E+02  0.4000E+02
     21.746  0.0000E+00  0.0000E+00  0.4000E+02  0.4000E+02
     22.023  0.0000E+00  0.0000E+00  0.4000E+02  0.4000E+02
     22.300  0.0000E+00  0.0000E+00  0.4000E+02  0.4000E+02
     22.577  0.0000E+00  0.0000E+00  0.4000E+02  0.4000E+02
     22.853  0.0000E+00  0.0000E+00  0.4000E+02  0.4000E+02
     23.130  0.0000E+00  0.0000E+00  0.4000E+02  0.4000E+02
     23.407  0.0000E+00  0.0000E+00  0.4000E+02  0.4000E+02
     23.684  0.0000E+00  0.0000E+00  0.4000E+02  0.4000E+02
     23.961  0.0000E+00  0.0000E+00  0.4000E+02  0.4000E+02
     24.238  0.0000E+00  0.0000E+00  0.4000E+02  0.4000E+02
     24.514  0.0000E+00  0.0000E+00  0.4000E+02  0.4000E+02
