       N       E                     dE             d eps       ncg     rms          rms(c)
DAV:   1     0.631777501695E+03    0.63178E+03   -0.32650E+04  6872   0.157E+03
DAV:   2     0.165985763183E+01   -0.63012E+03   -0.59913E+03  5960   0.503E+02
DAV:   3    -0.339868133822E+02   -0.35647E+02   -0.34025E+02  6880   0.139E+02
DAV:   4    -0.348894544681E+02   -0.90264E+00   -0.90000E+00  6464   0.210E+01
DAV:   5    -0.349152254372E+02   -0.25771E-01   -0.25769E-01  7104   0.372E+00    0.255E+01
DAV:   6    -0.480642102398E+02   -0.13149E+02   -0.12168E+02  6832   0.137E+02    0.345E+01
DAV:   7    -0.302808831264E+02    0.17783E+02   -0.43805E+01  6864   0.892E+01    0.551E+00
DAV:   8    -0.302738904539E+02    0.69927E-02   -0.43418E+00  7784   0.174E+01    0.391E+00
DAV:   9    -0.302405683798E+02    0.33322E-01   -0.86168E-01  6792   0.143E+01    0.338E+00
DAV:  10    -0.301549868288E+02    0.85582E-01   -0.28557E-01  6888   0.942E+00    0.987E-01
DAV:  11    -0.301569754498E+02   -0.19886E-02   -0.45380E-02  7872   0.285E+00    0.924E-01
DAV:  12    -0.301495426652E+02    0.74328E-02   -0.27894E-02  7232   0.315E+00    0.506E-01
DAV:  13    -0.301493831578E+02    0.15951E-03   -0.82154E-03  7848   0.114E+00    0.192E-01
DAV:  14    -0.301492835527E+02    0.99605E-04   -0.10160E-03  6696   0.337E-01    0.169E-01
DAV:  15    -0.301490221548E+02    0.26140E-03   -0.54902E-04  7976   0.223E-01    0.333E-02
DAV:  16    -0.301490178728E+02    0.42821E-05   -0.85324E-05  7488   0.848E-02    0.119E-02
DAV:  17    -0.301490175818E+02    0.29099E-06   -0.57955E-06  6752   0.255E-02    0.464E-03
DAV:  18    -0.301490177041E+02   -0.12238E-06   -0.35997E-07  6408   0.642E-03    0.257E-03
DAV:  19    -0.301490175817E+02    0.12242E-06   -0.68233E-08  6392   0.231E-03    0.128E-03
DAV:  20    -0.301490174890E+02    0.92759E-07   -0.25212E-08  4056   0.145E-03    0.429E-04
DAV:  21    -0.301490174752E+02    0.13726E-07   -0.72949E-09  3536   0.648E-04    0.802E-05
DAV:  22    -0.301490174747E+02    0.58390E-09   -0.15256E-09  3112   0.295E-04
   1 F= -.30149017E+02 E0= -.30149773E+02  d E =-.301490E+02  mag=     0.0000
       N       E                     dE             d eps       ncg     rms          rms(c)
DAV:   1    -0.152418498763E+03   -0.12227E+03   -0.15786E+03  5760   0.555E+02    0.843E+01
DAV:   2    -0.727645758751E+02    0.79654E+02   -0.75840E+02  6912   0.245E+02    0.573E+01
DAV:   3    -0.512695975485E+02    0.21495E+02   -0.29265E+02  6768   0.177E+02    0.393E+01
DAV:   4    -0.324878771557E+02    0.18782E+02   -0.58528E+01  6992   0.890E+01    0.938E+00
DAV:   5    -0.318343742280E+02    0.65350E+00   -0.34684E+00  7808   0.272E+01    0.746E+00
DAV:   6    -0.313301565175E+02    0.50422E+00   -0.42922E+00  6832   0.219E+01    0.641E+00
DAV:   7    -0.309340559405E+02    0.39610E+00   -0.99094E-01  8560   0.120E+01    0.358E+00
DAV:   8    -0.308887490975E+02    0.45307E-01   -0.30144E-01  7024   0.744E+00    0.202E+00
DAV:   9    -0.308469980641E+02    0.41751E-01   -0.14545E-01  7920   0.450E+00    0.368E-01
DAV:  10    -0.308470193823E+02   -0.21318E-04   -0.13552E-02  7376   0.935E-01    0.154E-01
DAV:  11    -0.308468233081E+02    0.19607E-03   -0.17812E-03  6704   0.551E-01    0.424E-02
DAV:  12    -0.308468941378E+02   -0.70830E-04   -0.35936E-04  6832   0.304E-01    0.878E-02
DAV:  13    -0.308468458047E+02    0.48333E-04   -0.19171E-04  7008   0.238E-01    0.206E-02
DAV:  14    -0.308468452782E+02    0.52656E-06   -0.33682E-05  6592   0.604E-02    0.873E-03
DAV:  15    -0.308468445290E+02    0.74920E-06   -0.20278E-06  7080   0.144E-02    0.417E-03
DAV:  16    -0.308468445167E+02    0.12255E-07   -0.54895E-07  8368   0.103E-02    0.180E-03
DAV:  17    -0.308468444435E+02    0.73196E-07   -0.16152E-07  6432   0.326E-03    0.101E-03
DAV:  18    -0.308468444302E+02    0.13379E-07   -0.14694E-08  3560   0.202E-03    0.218E-04
DAV:  19    -0.308468444201E+02    0.10017E-07   -0.49572E-09  3216   0.707E-04    0.103E-04
DAV:  20    -0.308468444167E+02    0.34270E-08   -0.19401E-09  3248   0.493E-04
   2 F= -.30846844E+02 E0= -.30846725E+02  d E =-.697827E+00  mag=    -0.0000
       N       E                     dE             d eps       ncg     rms          rms(c)
DAV:   1    -0.638034868582E+02   -0.32957E+02   -0.28488E+02  6448   0.195E+02    0.612E+01
DAV:   2    -0.111401916423E+03   -0.47598E+02   -0.57748E+02  6480   0.304E+02    0.577E+01
DAV:   3    -0.368457362077E+02    0.74556E+02   -0.20316E+02  6800   0.139E+02    0.173E+01
DAV:   4    -0.359837290804E+02    0.86201E+00   -0.25734E+00  6560   0.122E+01    0.157E+01
DAV:   5    -0.333274542784E+02    0.26563E+01   -0.16251E+00  7248   0.197E+01    0.109E+01
DAV:   6    -0.317743267560E+02    0.15531E+01   -0.17288E+00  7376   0.216E+01    0.566E+00
DAV:   7    -0.314004609326E+02    0.37387E+00   -0.37892E+00  7552   0.200E+01    0.459E+00
DAV:   8    -0.313087169288E+02    0.91744E-01   -0.34543E-01  6496   0.590E+00    0.304E+00
DAV:   9    -0.312272083268E+02    0.81509E-01   -0.18343E-01  7920   0.493E+00    0.125E+00
DAV:  10    -0.312180138640E+02    0.91945E-02   -0.87307E-02  7488   0.363E+00    0.843E-01
DAV:  11    -0.312142970121E+02    0.37169E-02   -0.81190E-03  6736   0.114E+00    0.638E-01
DAV:  12    -0.312100227605E+02    0.42743E-02   -0.12799E-02  7552   0.127E+00    0.914E-02
DAV:  13    -0.312101773508E+02   -0.15459E-03   -0.18138E-03  6864   0.507E-01    0.109E-01
DAV:  14    -0.312100859551E+02    0.91396E-04   -0.34284E-04  6976   0.295E-01    0.343E-02
DAV:  15    -0.312100795968E+02    0.63582E-05   -0.35704E-05  6800   0.897E-02    0.129E-02
DAV:  16    -0.312100796646E+02   -0.67772E-07   -0.87310E-06  7248   0.293E-02    0.420E-03
DAV:  17    -0.312100795597E+02    0.10484E-06   -0.92810E-07  6592   0.127E-02    0.111E-03
DAV:  18    -0.312100795690E+02   -0.92587E-08   -0.83961E-08  6080   0.372E-03
   3 F= -.31210080E+02 E0= -.31210650E+02  d E =-.106106E+01  mag=    -0.0000
       N       E                     dE             d eps       ncg     rms          rms(c)
DAV:   1    -0.318398598342E+02   -0.62978E+00   -0.21396E+01  6432   0.130E+02    0.113E+01
DAV:   2    -0.348396791479E+02   -0.29998E+01   -0.27712E+01  6832   0.579E+01    0.162E+01
DAV:   3    -0.313982407922E+02    0.34414E+01   -0.10039E+01  6768   0.398E+01    0.181E+00
DAV:   4    -0.314145923090E+02   -0.16352E-01   -0.45335E-01  8576   0.887E+00    0.235E+00
DAV:   5    -0.313824682782E+02    0.32124E-01   -0.16594E-01  7056   0.792E+00    0.121E+00
DAV:   6    -0.313729533201E+02    0.95150E-02   -0.49235E-02  6832   0.311E+00    0.251E-01
DAV:   7    -0.313731439834E+02   -0.19066E-03   -0.61953E-03  7264   0.127E+00    0.329E-01
DAV:   8    -0.313725227236E+02    0.62126E-03   -0.36163E-03  7072   0.105E+00    0.857E-02
DAV:   9    -0.313724879418E+02    0.34782E-04   -0.35786E-04  6992   0.207E-01    0.263E-02
DAV:  10    -0.313724855953E+02    0.23465E-05   -0.31056E-05  6864   0.665E-02    0.107E-02
DAV:  11    -0.313724834438E+02    0.21515E-05   -0.51192E-06  6960   0.191E-02    0.346E-03
DAV:  12    -0.313724832329E+02    0.21086E-06   -0.10831E-06  6576   0.941E-03    0.861E-04
DAV:  13    -0.313724831269E+02    0.10599E-06   -0.87196E-08  6464   0.382E-03    0.259E-04
DAV:  14    -0.313724831030E+02    0.23929E-07   -0.73527E-09  3776   0.928E-04    0.983E-05
DAV:  15    -0.313724831055E+02   -0.24575E-08   -0.12798E-09  3344   0.415E-04
   4 F= -.31372483E+02 E0= -.31372218E+02  d E =-.162404E+00  mag=    -0.0000
       N       E                     dE             d eps       ncg     rms          rms(c)
DAV:   1    -0.319510723259E+02   -0.57859E+00   -0.24059E+01  6544   0.139E+02    0.121E+01
DAV:   2    -0.351197358742E+02   -0.31687E+01   -0.31265E+01  6736   0.619E+01    0.166E+01
DAV:   3    -0.314441288510E+02    0.36756E+01   -0.10554E+01  6656   0.420E+01    0.187E+00
DAV:   4    -0.314679206651E+02   -0.23792E-01   -0.53434E-01  8336   0.960E+00    0.276E+00
DAV:   5    -0.314270019164E+02    0.40919E-01   -0.29051E-01  6768   0.848E+00    0.129E+00
DAV:   6    -0.314219874627E+02    0.50145E-02   -0.72232E-02  7072   0.414E+00    0.972E-01
DAV:   7    -0.314156307735E+02    0.63567E-02   -0.26270E-02  6704   0.330E+00    0.245E-01
DAV:   8    -0.314152748221E+02    0.35595E-03   -0.47196E-03  7200   0.775E-01    0.123E-01
DAV:   9    -0.314151781305E+02    0.96692E-04   -0.56873E-04  6912   0.286E-01    0.203E-02
DAV:  10    -0.314151765236E+02    0.16069E-05   -0.26711E-05  7424   0.559E-02    0.703E-03
DAV:  11    -0.314151755692E+02    0.95443E-06   -0.24977E-06  6768   0.148E-02    0.208E-03
DAV:  12    -0.314151753161E+02    0.25313E-06   -0.44656E-07  6448   0.932E-03    0.144E-03
DAV:  13    -0.314151752658E+02    0.50235E-07   -0.64488E-08  5888   0.456E-03    0.157E-04
DAV:  14    -0.314151752436E+02    0.22201E-07   -0.44621E-09  3552   0.607E-04    0.658E-05
DAV:  15    -0.314151752434E+02    0.17644E-09   -0.79578E-10  3312   0.314E-04
   5 F= -.31415175E+02 E0= -.31415207E+02  d E =-.205096E+00  mag=     0.0000
       N       E                     dE             d eps       ncg     rms          rms(c)
DAV:   1    -0.314373204140E+02   -0.22145E-01   -0.99447E-01  6528   0.279E+01    0.236E+00
DAV:   2    -0.315659848462E+02   -0.12866E+00   -0.12688E+00  6832   0.123E+01    0.371E+00
DAV:   3    -0.314213798041E+02    0.14461E+00   -0.51252E-01  6672   0.820E+00    0.646E-01
DAV:   4    -0.314215475092E+02   -0.16771E-03   -0.26100E-02  7968   0.282E+00    0.648E-01
DAV:   5    -0.314181219358E+02    0.34256E-02   -0.81893E-03  6880   0.205E+00    0.144E-01
DAV:   6    -0.314186421386E+02   -0.52020E-03   -0.43555E-03  7984   0.115E+00    0.312E-01
DAV:   7    -0.314179870775E+02    0.65506E-03   -0.25198E-03  6888   0.895E-01    0.297E-02
DAV:   8    -0.314179944595E+02   -0.73820E-05   -0.17271E-04  6992   0.126E-01    0.220E-02
DAV:   9    -0.314179931458E+02    0.13137E-05   -0.14145E-05  6624   0.577E-02    0.495E-03
DAV:  10    -0.314179936255E+02   -0.47977E-06   -0.13125E-06  7864   0.151E-02    0.153E-03
DAV:  11    -0.314179937173E+02   -0.91704E-07   -0.11763E-07  6496   0.475E-03    0.437E-04
DAV:  12    -0.314179937655E+02   -0.48287E-07   -0.13510E-08  3936   0.173E-03    0.115E-04
DAV:  13    -0.314179937709E+02   -0.53351E-08   -0.18757E-09  3464   0.484E-04
   6 F= -.31417994E+02 E0= -.31417998E+02  d E =-.207914E+00  mag=     0.0000
       N       E                     dE             d eps       ncg     rms          rms(c)
DAV:   1    -0.323563536490E+02   -0.93836E+00   -0.24731E+01  6752   0.116E+02    0.121E+01
DAV:   2    -0.353502806355E+02   -0.29939E+01   -0.35754E+01  6688   0.619E+01    0.195E+01
DAV:   3    -0.315561137702E+02    0.37942E+01   -0.13401E+01  6496   0.399E+01    0.351E+00
DAV:   4    -0.315833878122E+02   -0.27274E-01   -0.91637E-01  8000   0.162E+01    0.398E+00
DAV:   5    -0.314574406370E+02    0.12595E+00   -0.38077E-01  7072   0.111E+01    0.648E-01
DAV:   6    -0.314712269013E+02   -0.13786E-01   -0.12252E-01  8112   0.571E+00    0.154E+00
DAV:   7    -0.314544669076E+02    0.16760E-01   -0.61130E-02  6944   0.408E+00    0.156E-01
DAV:   8    -0.314544789235E+02   -0.12016E-04   -0.42551E-03  6608   0.501E-01    0.112E-01
DAV:   9    -0.314544153739E+02    0.63550E-04   -0.46929E-04  6768   0.276E-01    0.364E-02
DAV:  10    -0.314544086436E+02    0.67303E-05   -0.57167E-05  6640   0.115E-01    0.466E-03
DAV:  11    -0.314544093912E+02   -0.74766E-06   -0.46020E-06  6720   0.231E-02    0.282E-03
DAV:  12    -0.314544096062E+02   -0.21499E-06   -0.53495E-07  6656   0.936E-03    0.128E-03
DAV:  13    -0.314544096983E+02   -0.92046E-07   -0.74329E-08  6640   0.376E-03    0.420E-04
DAV:  14    -0.314544097009E+02   -0.26430E-08   -0.95891E-09  3600   0.159E-03
   7 F= -.31454410E+02 E0= -.31454922E+02  d E =-.364159E-01  mag=    -0.0000
       N       E                     dE             d eps       ncg     rms          rms(c)
DAV:   1    -0.316513235124E+02   -0.19691E+00   -0.53318E+00  6800   0.553E+01    0.578E+00
DAV:   2    -0.323685850658E+02   -0.71726E+00   -0.75882E+00  6688   0.295E+01    0.943E+00
DAV:   3    -0.314772057566E+02    0.89138E+00   -0.31234E+00  6480   0.196E+01    0.158E+00
DAV:   4    -0.314851171166E+02   -0.79114E-02   -0.21717E-01  7968   0.771E+00    0.186E+00
DAV:   5    -0.314563061610E+02    0.28811E-01   -0.74417E-02  7024   0.516E+00    0.208E-01
DAV:   6    -0.314565677801E+02   -0.26162E-03   -0.91432E-03  7088   0.909E-01    0.191E-01
DAV:   7    -0.314563789398E+02    0.18884E-03   -0.15741E-03  7024   0.780E-01    0.963E-02
DAV:   8    -0.314563030784E+02    0.75861E-04   -0.45104E-04  6848   0.316E-01    0.565E-02
DAV:   9    -0.314562860672E+02    0.17011E-04   -0.10871E-04  6976   0.152E-01    0.217E-02
DAV:  10    -0.314562841746E+02    0.18926E-05   -0.18213E-05  6560   0.758E-02    0.324E-03
DAV:  11    -0.314562846755E+02   -0.50087E-06   -0.21706E-06  6640   0.174E-02    0.223E-03
DAV:  12    -0.314562847877E+02   -0.11216E-06   -0.34046E-07  6672   0.800E-03    0.493E-04
DAV:  13    -0.314562847964E+02   -0.87712E-08   -0.20574E-08  3824   0.203E-03
   8 F= -.31456285E+02 E0= -.31456905E+02  d E =-.382910E-01  mag=    -0.0000
       N       E                     dE             d eps       ncg     rms          rms(c)
DAV:   1    -0.314854819791E+02   -0.29197E-01   -0.75806E-01  6848   0.210E+01    0.226E+00
DAV:   2    -0.315961310466E+02   -0.11065E+00   -0.10639E+00  6576   0.115E+01    0.347E+00
DAV:   3    -0.314596605570E+02    0.13647E+00   -0.41995E-01  6448   0.783E+00    0.569E-01
DAV:   4    -0.314605434359E+02   -0.88288E-03   -0.30391E-02  7760   0.300E+00    0.635E-01
DAV:   5    -0.314571060062E+02    0.34374E-02   -0.95625E-03  8048   0.163E+00    0.934E-02
DAV:   6    -0.314571880443E+02   -0.82038E-04   -0.11853E-03  8208   0.521E-01    0.128E-01
DAV:   7    -0.314570765791E+02    0.11147E-03   -0.49526E-04  6720   0.471E-01    0.308E-02
DAV:   8    -0.314570700273E+02    0.65519E-05   -0.54469E-05  6768   0.890E-02    0.143E-02
DAV:   9    -0.314570687689E+02    0.12584E-05   -0.66196E-06  6688   0.283E-02    0.424E-03
DAV:  10    -0.314570684101E+02    0.35875E-06   -0.74166E-07  6672   0.123E-02    0.801E-04
DAV:  11    -0.314570682764E+02    0.13372E-06   -0.66978E-08  6288   0.300E-03    0.295E-04
DAV:  12    -0.314570682494E+02    0.27057E-07   -0.74574E-09  3616   0.113E-03    0.135E-04
DAV:  13    -0.314570682378E+02    0.11600E-07   -0.17321E-09  3168   0.463E-04    0.428E-05
DAV:  14    -0.314570682347E+02    0.30341E-08   -0.46425E-10  3088   0.235E-04
   9 F= -.31457068E+02 E0= -.31457683E+02  d E =-.390745E-01  mag=     0.0000
       N       E                     dE             d eps       ncg     rms          rms(c)
DAV:   1    -0.312772237450E+02    0.17984E+00   -0.19985E+01  7136   0.117E+02    0.611E+00
DAV:   2    -0.320600335321E+02   -0.78281E+00   -0.10214E+01  6672   0.328E+01    0.705E+00
DAV:   3    -0.315977913050E+02    0.46224E+00   -0.25062E+00  7232   0.246E+01    0.352E+00
DAV:   4    -0.315816489493E+02    0.16142E-01   -0.76497E-01  6960   0.146E+01    0.344E+00
DAV:   5    -0.314805338920E+02    0.10112E+00   -0.36314E-01  7072   0.788E+00    0.473E-01
DAV:   6    -0.314848887191E+02   -0.43548E-02   -0.48903E-02  7888   0.344E+00    0.811E-01
DAV:   7    -0.314801593731E+02    0.47293E-02   -0.16940E-02  6720   0.279E+00    0.107E-01
DAV:   8    -0.314801963246E+02   -0.36952E-04   -0.15442E-03  6624   0.330E-01    0.534E-02
DAV:   9    -0.314802096674E+02   -0.13343E-04   -0.10863E-04  7744   0.144E-01    0.216E-02
DAV:  10    -0.314802114122E+02   -0.17448E-05   -0.21648E-05  6752   0.717E-02    0.439E-03
DAV:  11    -0.314802112265E+02    0.18568E-06   -0.19698E-06  6832   0.185E-02    0.151E-03
DAV:  12    -0.314802111732E+02    0.53338E-07   -0.18609E-07  7312   0.578E-03    0.388E-04
DAV:  13    -0.314802111424E+02    0.30761E-07   -0.14036E-08  3896   0.160E-03    0.177E-04
DAV:  14    -0.314802111341E+02    0.82891E-08   -0.45129E-09  3376   0.955E-04
  10 F= -.31480211E+02 E0= -.31480740E+02  d E =-.231429E-01  mag=    -0.0000
       N       E                     dE             d eps       ncg     rms          rms(c)
DAV:   1    -0.314708511641E+02    0.93600E-02   -0.81907E-01  7120   0.236E+01    0.124E+00
DAV:   2    -0.315047847872E+02   -0.33934E-01   -0.44168E-01  6512   0.689E+00    0.147E+00
DAV:   3    -0.314869719413E+02    0.17813E-01   -0.11237E-01  7120   0.513E+00    0.809E-01
DAV:   4    -0.314850300680E+02    0.19419E-02   -0.37362E-02  6624   0.329E+00    0.645E-01
DAV:   5    -0.314810124052E+02    0.40177E-02   -0.11462E-02  7232   0.170E+00    0.973E-02
DAV:   6    -0.314813167907E+02   -0.30439E-03   -0.26436E-03  7920   0.939E-01    0.210E-01
DAV:   7    -0.314809913910E+02    0.32540E-03   -0.10977E-03  6752   0.734E-01    0.216E-02
DAV:   8    -0.314809959202E+02   -0.45291E-05   -0.89663E-05  6720   0.724E-02    0.126E-02
DAV:   9    -0.314809962344E+02   -0.31424E-06   -0.64082E-06  7792   0.405E-02    0.528E-03
DAV:  10    -0.314809962226E+02    0.11782E-07   -0.12127E-06  6736   0.181E-02    0.806E-04
DAV:  11    -0.314809962204E+02    0.22483E-08   -0.88803E-08  6496   0.358E-03
  11 F= -.31480996E+02 E0= -.31481487E+02  d E =-.239280E-01  mag=    -0.0000
       N       E                     dE             d eps       ncg     rms          rms(c)
DAV:   1    -0.318397342355E+02   -0.35874E+00   -0.44950E+00  6496   0.505E+01    0.688E+00
DAV:   2    -0.327507023382E+02   -0.91097E+00   -0.87759E+00  6448   0.345E+01    0.100E+01
DAV:   3    -0.314929108577E+02    0.12578E+01   -0.37264E+00  6384   0.238E+01    0.101E+00
DAV:   4    -0.314975705246E+02   -0.46597E-02   -0.11429E-01  8096   0.399E+00    0.101E+00
DAV:   5    -0.314891457132E+02    0.84248E-02   -0.24267E-02  7376   0.256E+00    0.393E-01
DAV:   6    -0.314889585507E+02    0.18716E-03   -0.71773E-03  7552   0.149E+00    0.349E-01
DAV:   7    -0.314881098060E+02    0.84874E-03   -0.33878E-03  6704   0.130E+00    0.680E-02
DAV:   8    -0.314880676824E+02    0.42124E-04   -0.53642E-04  6592   0.237E-01    0.428E-02
DAV:   9    -0.314880503059E+02    0.17377E-04   -0.70490E-05  6800   0.108E-01    0.680E-03
DAV:  10    -0.314880493549E+02    0.95097E-06   -0.42556E-06  6864   0.224E-02    0.240E-03
DAV:  11    -0.314880490875E+02    0.26740E-06   -0.40759E-07  7008   0.892E-03    0.700E-04
DAV:  12    -0.314880489752E+02    0.11233E-06   -0.72113E-08  6656   0.288E-03    0.578E-04
DAV:  13    -0.314880489313E+02    0.43910E-07   -0.87318E-09  3296   0.109E-03    0.827E-05
DAV:  14    -0.314880489238E+02    0.74760E-08   -0.19716E-09  3184   0.355E-04
  12 F= -.31488049E+02 E0= -.31488513E+02  d E =-.705270E-02  mag=     0.0000
       N       E                     dE             d eps       ncg     rms          rms(c)
DAV:   1    -0.314881618979E+02   -0.11297E-03   -0.14520E-03  6480   0.904E-01    0.121E-01
DAV:   2    -0.314884450394E+02   -0.28314E-03   -0.27870E-03  6496   0.610E-01    0.183E-01
DAV:   3    -0.314880551566E+02    0.38988E-03   -0.12074E-03  6400   0.416E-01    0.231E-02
DAV:   4    -0.314880557179E+02   -0.56127E-06   -0.39961E-05  8448   0.908E-02    0.209E-02
DAV:   5    -0.314880516451E+02    0.40728E-05   -0.10315E-05  7056   0.533E-02    0.485E-03
DAV:   6    -0.314880517586E+02   -0.11354E-06   -0.27570E-06  7840   0.315E-02    0.799E-03
DAV:   7    -0.314880512510E+02    0.50768E-06   -0.14264E-06  6880   0.263E-02    0.979E-04
DAV:   8    -0.314880511729E+02    0.78058E-07   -0.16829E-07  6576   0.332E-03    0.766E-04
DAV:   9    -0.314880511477E+02    0.25195E-07   -0.24762E-08  3744   0.223E-03    0.234E-04
DAV:  10    -0.314880511306E+02    0.17157E-07   -0.41741E-09  2976   0.889E-04    0.560E-05
DAV:  11    -0.314880511279E+02    0.26394E-08   -0.58112E-10  2928   0.257E-04
  13 F= -.31488051E+02 E0= -.31488515E+02  d E =-.705491E-02  mag=     0.0000
       N       E                     dE             d eps       ncg     rms          rms(c)
DAV:   1    -0.314307437029E+02    0.57307E-01   -0.17005E+00  6800   0.473E+01    0.169E+00
DAV:   2    -0.315494971598E+02   -0.11875E+00   -0.12069E+00  6880   0.103E+01    0.229E+00
DAV:   3    -0.314968121912E+02    0.52685E-01   -0.24322E-01  6416   0.700E+00    0.904E-01
DAV:   4    -0.314932238727E+02    0.35883E-02   -0.32315E-02  7296   0.284E+00    0.460E-01
DAV:   5    -0.314918686344E+02    0.13552E-02   -0.26725E-03  6640   0.752E-01    0.253E-01
DAV:   6    -0.314912854950E+02    0.58314E-03   -0.21456E-03  6784   0.573E-01    0.518E-02
DAV:   7    -0.314912626639E+02    0.22831E-04   -0.30026E-04  6528   0.224E-01    0.331E-02
DAV:   8    -0.314912668630E+02   -0.41991E-05   -0.55544E-05  6944   0.152E-01    0.382E-02
DAV:   9    -0.314912574480E+02    0.94150E-05   -0.22499E-05  7040   0.974E-02    0.997E-03
DAV:  10    -0.314912571704E+02    0.27768E-06   -0.83092E-06  6736   0.295E-02    0.516E-03
DAV:  11    -0.314912569346E+02    0.23572E-06   -0.88043E-07  6464   0.132E-02    0.852E-04
DAV:  12    -0.314912569579E+02   -0.23296E-07   -0.78731E-08  6112   0.292E-03    0.240E-04
DAV:  13    -0.314912569718E+02   -0.13852E-07   -0.30098E-09  3168   0.866E-04    0.101E-04
DAV:  14    -0.314912569776E+02   -0.58280E-08   -0.78730E-10  3024   0.269E-04
  14 F= -.31491257E+02 E0= -.31491629E+02  d E =-.320585E-02  mag=    -0.0000
       N       E                     dE             d eps       ncg     rms          rms(c)
DAV:   1    -0.314912118612E+02    0.45111E-04   -0.13455E-03  6800   0.134E+00    0.481E-02
DAV:   2    -0.314913055997E+02   -0.93738E-04   -0.95604E-04  6944   0.293E-01    0.649E-02
DAV:   3    -0.314912624487E+02    0.43151E-04   -0.18913E-04  6432   0.200E-01    0.240E-02
DAV:   4    -0.314912602030E+02    0.22457E-05   -0.24828E-05  6928   0.875E-02    0.128E-02
DAV:   5    -0.314912592603E+02    0.94270E-06   -0.21757E-06  6656   0.221E-02    0.693E-03
DAV:   6    -0.314912591715E+02    0.88796E-07   -0.16402E-06  6976   0.181E-02    0.319E-03
DAV:   7    -0.314912591318E+02    0.39703E-07   -0.38548E-07  6592   0.116E-02    0.109E-03
DAV:   8    -0.314912591321E+02   -0.35106E-09   -0.15581E-07  6624   0.438E-03    0.106E-03
DAV:   9    -0.314912591467E+02   -0.14570E-07   -0.17967E-08  3056   0.179E-03    0.155E-04
DAV:  10    -0.314912591500E+02   -0.32851E-08   -0.32978E-09  2960   0.482E-04
  15 F= -.31491259E+02 E0= -.31491628E+02  d E =-.320802E-02  mag=    -0.0000
       N       E                     dE             d eps       ncg     rms          rms(c)
DAV:   1    -0.314855649769E+02    0.56942E-02   -0.16607E-01  7904   0.141E+01    0.358E-01
DAV:   2    -0.314929230869E+02   -0.73581E-02   -0.83599E-02  6368   0.243E+00    0.333E-01
DAV:   3    -0.314921991531E+02    0.72393E-03   -0.73177E-03  6624   0.130E+00    0.225E-01
DAV:   4    -0.314921212328E+02    0.77920E-04   -0.32165E-03  6752   0.108E+00    0.225E-01
DAV:   5    -0.314916668215E+02    0.45441E-03   -0.13017E-03  7120   0.659E-01    0.332E-02
DAV:   6    -0.314916795650E+02   -0.12744E-04   -0.21948E-04  8288   0.213E-01    0.489E-02
DAV:   7    -0.314916629914E+02    0.16574E-04   -0.63509E-05  6800   0.170E-01    0.863E-03
DAV:   8    -0.314916631965E+02   -0.20505E-06   -0.78767E-06  6560   0.278E-02    0.579E-03
DAV:   9    -0.314916630587E+02    0.13784E-06   -0.96174E-07  6832   0.138E-02    0.134E-03
DAV:  10    -0.314916630540E+02    0.46330E-08   -0.98979E-08  6800   0.384E-03
  16 F= -.31491663E+02 E0= -.31492003E+02  d E =-.403904E-03  mag=     0.0000
       N       E                     dE             d eps       ncg     rms          rms(c)
DAV:   1    -0.314837840810E+02    0.78790E-02   -0.22030E-01  7936   0.162E+01    0.412E-01
DAV:   2    -0.314935487601E+02   -0.97647E-02   -0.11091E-01  6352   0.281E+00    0.386E-01
DAV:   3    -0.314925762063E+02    0.97255E-03   -0.97542E-03  6608   0.151E+00    0.260E-01
DAV:   4    -0.314924705212E+02    0.10569E-03   -0.42941E-03  6768   0.125E+00    0.259E-01
DAV:   5    -0.314918680798E+02    0.60244E-03   -0.17343E-03  7104   0.763E-01    0.386E-02
DAV:   6    -0.314918892188E+02   -0.21139E-04   -0.31149E-04  8272   0.264E-01    0.613E-02
DAV:   7    -0.314918628639E+02    0.26355E-04   -0.98270E-05  6816   0.212E-01    0.994E-03
DAV:   8    -0.314918632293E+02   -0.36542E-06   -0.11441E-05  6544   0.327E-02    0.676E-03
DAV:   9    -0.314918630445E+02    0.18486E-06   -0.13132E-06  6800   0.164E-02    0.156E-03
DAV:  10    -0.314918630412E+02    0.32232E-08   -0.13933E-07  7008   0.454E-03    0.592E-04
DAV:  11    -0.314918630349E+02    0.62992E-08   -0.10884E-08  3312   0.153E-03
  17 F= -.31491863E+02 E0= -.31492174E+02  d E =-.603885E-03  mag=    -0.0000
       N       E                     dE             d eps       ncg     rms          rms(c)
DAV:   1    -0.314914823990E+02    0.38064E-03   -0.33366E-02  6832   0.576E+00    0.314E-01
DAV:   2    -0.314940385027E+02   -0.25561E-02   -0.27433E-02  6912   0.175E+00    0.428E-01
DAV:   3    -0.314920969488E+02    0.19416E-02   -0.73100E-03  6368   0.119E+00    0.144E-01
DAV:   4    -0.314920489082E+02    0.48041E-04   -0.12619E-03  7120   0.633E-01    0.107E-01
DAV:   5    -0.314919364837E+02    0.11242E-03   -0.30694E-04  7328   0.300E-01    0.219E-02
DAV:   6    -0.314919555507E+02   -0.19067E-04   -0.12257E-04  8144   0.216E-01    0.534E-02
DAV:   7    -0.314919342977E+02    0.21253E-04   -0.59996E-05  6848   0.171E-01    0.455E-03
DAV:   8    -0.314919347960E+02   -0.49831E-06   -0.59467E-06  6768   0.195E-02    0.410E-03
DAV:   9    -0.314919347682E+02    0.27816E-07   -0.67174E-07  6592   0.124E-02    0.114E-03
DAV:  10    -0.314919348300E+02   -0.61829E-07   -0.55103E-08  5920   0.366E-03    0.197E-04
DAV:  11    -0.314919348431E+02   -0.13128E-07   -0.38310E-09  3120   0.832E-04    0.107E-04
DAV:  12    -0.314919348469E+02   -0.37871E-08   -0.16647E-09  2976   0.518E-04
  18 F= -.31491935E+02 E0= -.31492242E+02  d E =-.718120E-04  mag=    -0.0000
       N       E                     dE             d eps       ncg     rms          rms(c)
DAV:   1    -0.314918265265E+02    0.10832E-03   -0.83976E-03  6832   0.289E+00    0.158E-01
DAV:   2    -0.314924680896E+02   -0.64156E-03   -0.69044E-03  6912   0.880E-01    0.215E-01
DAV:   3    -0.314919806930E+02    0.48740E-03   -0.18381E-03  6368   0.598E-01    0.722E-02
DAV:   4    -0.314919687289E+02    0.11964E-04   -0.31588E-04  7120   0.313E-01    0.537E-02
DAV:   5    -0.314919407868E+02    0.27942E-04   -0.77587E-05  7312   0.150E-01    0.111E-02
DAV:   6    -0.314919458027E+02   -0.50159E-05   -0.31419E-05  8160   0.110E-01    0.270E-02
DAV:   7    -0.314919403726E+02    0.54300E-05   -0.15414E-05  6848   0.866E-02    0.229E-03
DAV:   8    -0.314919405411E+02   -0.16846E-06   -0.15270E-06  6784   0.984E-03    0.205E-03
DAV:   9    -0.314919405463E+02   -0.51969E-08   -0.16936E-07  6576   0.624E-03    0.574E-04
DAV:  10    -0.314919405773E+02   -0.31010E-07   -0.11946E-08  3168   0.183E-03    0.103E-04
DAV:  11    -0.314919405837E+02   -0.64065E-08   -0.25053E-09  2960   0.557E-04
  19 F= -.31491941E+02 E0= -.31492245E+02  d E =-.775488E-04  mag=     0.0000
       N       E                     dE             d eps       ncg     rms          rms(c)
DAV:   1    -0.314932154051E+02   -0.12748E-02   -0.53137E-02  6880   0.684E+00    0.566E-01
DAV:   2    -0.314998497039E+02   -0.66343E-02   -0.67669E-02  6480   0.293E+00    0.818E-01
DAV:   3    -0.314920809483E+02    0.77688E-02   -0.25297E-02  6384   0.191E+00    0.125E-01
DAV:   4    -0.314920866376E+02   -0.56893E-05   -0.10574E-03  8208   0.525E-01    0.129E-01
DAV:   5    -0.314919543230E+02    0.13231E-03   -0.45549E-04  6864   0.449E-01    0.337E-02
DAV:   6    -0.314919459914E+02    0.83316E-05   -0.61400E-05  6976   0.949E-02    0.924E-03
DAV:   7    -0.314919459308E+02    0.60614E-07   -0.68449E-06  7600   0.417E-02    0.930E-03
DAV:   8    -0.314919451939E+02    0.73690E-06   -0.43171E-06  6640   0.302E-02    0.579E-03
DAV:   9    -0.314919448182E+02    0.37568E-06   -0.69103E-07  6736   0.120E-02    0.905E-04
DAV:  10    -0.314919447452E+02    0.73005E-07   -0.92776E-08  5808   0.275E-03    0.430E-04
DAV:  11    -0.314919447295E+02    0.15709E-07   -0.70883E-09  3136   0.135E-03    0.116E-04
DAV:  12    -0.314919447151E+02    0.14368E-07   -0.20530E-09  2992   0.393E-04    0.607E-05
DAV:  13    -0.314919447145E+02    0.64574E-09   -0.32115E-10  2960   0.203E-04
  20 F= -.31491945E+02 E0= -.31492243E+02  d E =-.413078E-05  mag=     0.0000
       N       E                     dE             d eps       ncg     rms          rms(c)
DAV:   1    -0.314922318551E+02   -0.28714E-03   -0.11440E-02  6864   0.317E+00    0.262E-01
DAV:   2    -0.314936360069E+02   -0.14042E-02   -0.14553E-02  6496   0.136E+00    0.379E-01
DAV:   3    -0.314919859784E+02    0.16500E-02   -0.54336E-03  6384   0.880E-01    0.594E-02
DAV:   4    -0.314919874901E+02   -0.15117E-05   -0.23250E-04  8256   0.247E-01    0.604E-02
DAV:   5    -0.314919595695E+02    0.27921E-04   -0.10262E-04  6848   0.212E-01    0.155E-02
DAV:   6    -0.314919592333E+02    0.33621E-06   -0.16402E-05  7168   0.538E-02    0.974E-03
DAV:   7    -0.314919587321E+02    0.50127E-06   -0.28360E-06  6848   0.305E-02    0.319E-03
DAV:   8    -0.314919588943E+02   -0.16227E-06   -0.12190E-06  6704   0.140E-02    0.350E-03
DAV:   9    -0.314919588708E+02    0.23525E-07   -0.27465E-07  6640   0.828E-03    0.398E-04
DAV:  10    -0.314919588990E+02   -0.28242E-07   -0.27852E-08  4544   0.145E-03    0.247E-04
DAV:  11    -0.314919589127E+02   -0.13622E-07   -0.23181E-09  2976   0.624E-04    0.437E-05
DAV:  12    -0.314919589191E+02   -0.63974E-08   -0.40955E-10  2912   0.184E-04
  21 F= -.31491959E+02 E0= -.31492260E+02  d E =-.183353E-04  mag=    -0.0000
       N       E                     dE             d eps       ncg     rms          rms(c)
DAV:   1    -0.314919335944E+02    0.25318E-04   -0.30771E-03  7392   0.140E+00    0.736E-02
DAV:   2    -0.314920342370E+02   -0.10064E-03   -0.14544E-03  6448   0.406E-01    0.777E-02
DAV:   3    -0.314919925787E+02    0.41658E-04   -0.32298E-04  6784   0.304E-01    0.508E-02
DAV:   4    -0.314919855274E+02    0.70513E-05   -0.15378E-04  6720   0.233E-01    0.442E-02
DAV:   5    -0.314919670649E+02    0.18463E-04   -0.53041E-05  7440   0.120E-01    0.627E-03
DAV:   6    -0.314919681972E+02   -0.11323E-05   -0.10959E-05  8000   0.597E-02    0.128E-02
DAV:   7    -0.314919669642E+02    0.12329E-05   -0.42568E-06  6784   0.446E-02    0.145E-03
DAV:   8    -0.314919669436E+02    0.20627E-07   -0.33486E-07  7152   0.469E-03    0.785E-04
DAV:   9    -0.314919669351E+02    0.84619E-08   -0.22919E-08  4144   0.224E-03
  22 F= -.31491967E+02 E0= -.31492264E+02  d E =-.801608E-05  mag=    -0.0000
       N       E                     dE             d eps       ncg     rms          rms(c)
DAV:   1    -0.314919655748E+02    0.13688E-05   -0.15190E-04  7392   0.311E-01    0.164E-02
DAV:   2    -0.314919707805E+02   -0.52057E-05   -0.72072E-05  6448   0.905E-02    0.173E-02
DAV:   3    -0.314919685912E+02    0.21893E-05   -0.16067E-05  6800   0.677E-02    0.113E-02
DAV:   4    -0.314919681920E+02    0.39916E-06   -0.75972E-06  6736   0.515E-02    0.976E-03
DAV:   5    -0.314919673006E+02    0.89149E-06   -0.25954E-06  7472   0.264E-02    0.135E-03
DAV:   6    -0.314919673443E+02   -0.43752E-07   -0.52148E-07  8016   0.130E-02    0.280E-03
DAV:   7    -0.314919672816E+02    0.62711E-07   -0.20306E-07  6728   0.969E-03    0.326E-04
DAV:   8    -0.314919672750E+02    0.65811E-08   -0.14503E-08  3456   0.103E-03
  23 F= -.31491967E+02 E0= -.31492263E+02  d E =-.835595E-05  mag=    -0.0000
