 running on   24 total cores
 distrk:  each k-point on   24 cores,    1 groups
 distr:  one band on    6 cores,    4 groups
 using from now: INCAR     
 vasp.5.4.4.18Apr17-6-g9f103f2a35 (build Jan 03 2018 06:08:52) complex          
  
 POSCAR found type information on POSCAR  Al Ni
 POSCAR found :  2 types and       6 ions
 scaLAPACK will be used
 WARNING: for PREC=h ENMAX is automatically increase by 25 %
        this was not the case for versions prior to vasp.4.4
 WARNING: for PREC=h ENMAX is automatically increase by 25 %
        this was not the case for versions prior to vasp.4.4
 LDA part: xc-table for Pade appr. of Perdew
 found WAVECAR, reading the header
 WAVECAR: different cutoff or change in lattice found
 POSCAR, INCAR and KPOINTS ok, starting setup
 FFT: planning ...
 reading WAVECAR
 the WAVECAR file was read successfully
 initial charge from wavefunction
 entering main loop
       N       E                     dE             d eps       ncg     rms          rms(c)
DAV:   1    -0.315372399722E+02   -0.31537E+02   -0.32324E-01  5760   0.668E+00    0.197E-01
DAV:   2    -0.315390583789E+02   -0.18184E-02   -0.18713E-02  7728   0.215E+00    0.619E-01
DAV:   3    -0.315368949085E+02    0.21635E-02   -0.11703E-02  7056   0.191E+00    0.126E-01
DAV:   4    -0.315368477399E+02    0.47169E-04   -0.13154E-03  7056   0.378E-01    0.804E-02
DAV:   5    -0.315368699659E+02   -0.22226E-04   -0.42557E-04  6912   0.406E-01    0.101E-01
DAV:   6    -0.315368267996E+02    0.43166E-04   -0.52513E-04  6944   0.298E-01    0.352E-02
DAV:   7    -0.315368391694E+02   -0.12370E-04   -0.15459E-04  7552   0.608E-02    0.567E-02
DAV:   8    -0.315368299718E+02    0.91976E-05   -0.18175E-04  7440   0.480E-02    0.250E-02
DAV:   9    -0.315368372591E+02   -0.72873E-05   -0.38583E-05  6928   0.276E-02    0.509E-02
DAV:  10    -0.315368291938E+02    0.80653E-05   -0.22931E-04  7296   0.276E-02    0.260E-02
DAV:  11    -0.315368356421E+02   -0.64483E-05   -0.29753E-06  7440   0.228E-02    0.200E-02
DAV:  12    -0.315368348976E+02    0.74453E-06   -0.13995E-07  6064   0.353E-03    0.199E-02
DAV:  13    -0.315368349926E+02   -0.95091E-07   -0.24039E-09  3024   0.619E-04    0.198E-02
DAV:  14    -0.315368374677E+02   -0.24750E-05   -0.13832E-07  7328   0.575E-03    0.174E-02
DAV:  15    -0.315368375796E+02   -0.11188E-06   -0.25565E-05  6944   0.422E-03    0.511E-02
DAV:  16    -0.315368318623E+02    0.57172E-05   -0.18177E-04  7840   0.228E-02    0.234E-02
DAV:  17    -0.315368366099E+02   -0.47476E-05   -0.26270E-06  7536   0.224E-02    0.192E-02
DAV:  18    -0.315368365286E+02    0.81298E-07   -0.13673E-07  5384   0.391E-03    0.185E-02
DAV:  19    -0.315368377016E+02   -0.11730E-05   -0.54857E-06  4224   0.363E-03    0.497E-02
DAV:  20    -0.315368313998E+02    0.63018E-05   -0.18912E-04  7792   0.221E-02    0.238E-02
DAV:  21    -0.315368373530E+02   -0.59532E-05   -0.28165E-06  7520   0.225E-02    0.186E-02
DAV:  22    -0.315368378488E+02   -0.49578E-06   -0.63108E-06  7568   0.529E-03    0.498E-02
DAV:  23    -0.315368303777E+02    0.74711E-05   -0.20554E-04  7792   0.229E-02    0.248E-02
DAV:  24    -0.315368370366E+02   -0.66588E-05   -0.29920E-06  7520   0.228E-02    0.189E-02
DAV:  25    -0.315368378481E+02   -0.81154E-06   -0.24155E-06  7664   0.541E-03    0.495E-02
DAV:  26    -0.315368297978E+02    0.80503E-05   -0.21519E-04  7792   0.233E-02    0.254E-02
DAV:  27    -0.315368368132E+02   -0.70154E-05   -0.30981E-06  7552   0.230E-02    0.191E-02
DAV:  28    -0.315368375579E+02   -0.74471E-06   -0.17423E-07  7232   0.501E-03    0.177E-02
DAV:  29    -0.315368377882E+02   -0.23029E-06   -0.19132E-06  2912   0.108E-03    0.495E-02
DAV:  30    -0.315368296909E+02    0.80972E-05   -0.21732E-04  7712   0.235E-02    0.255E-02
DAV:  31    -0.315368369572E+02   -0.72662E-05   -0.31649E-06  7520   0.232E-02    0.190E-02
DAV:  32    -0.315368378672E+02   -0.90999E-06   -0.15571E-06  7856   0.540E-03    0.494E-02
DAV:  33    -0.315368293412E+02    0.85259E-05   -0.22291E-04  7792   0.237E-02    0.258E-02
DAV:  34    -0.315368368557E+02   -0.75144E-05   -0.32306E-06  7552   0.234E-02    0.191E-02
DAV:  35    -0.315368375918E+02   -0.73611E-06   -0.17527E-07  7312   0.494E-03    0.177E-02
DAV:  36    -0.315368377990E+02   -0.20725E-06   -0.78225E-09  2880   0.862E-04    0.175E-02
DAV:  37    -0.315368378123E+02   -0.13333E-07   -0.33808E-06  2880   0.504E-04    0.496E-02
DAV:  38    -0.315368289337E+02    0.88787E-05   -0.23049E-04  7712   0.244E-02    0.262E-02
DAV:  39    -0.315368364112E+02   -0.74775E-05   -0.32573E-06  7520   0.235E-02    0.196E-02
DAV:  40    -0.315368374805E+02   -0.10694E-05   -0.19683E-07  7872   0.550E-03    0.178E-02
DAV:  41    -0.315368378424E+02   -0.36193E-06   -0.53657E-06  2880   0.169E-03    0.497E-02
DAV:  42    -0.315368291092E+02    0.87332E-05   -0.22762E-04  7648   0.245E-02    0.261E-02
DAV:  43    -0.315368367197E+02   -0.76105E-05   -0.32565E-06  7504   0.235E-02    0.193E-02
DAV:  44    -0.315368379146E+02   -0.11949E-05   -0.72982E-07  8000   0.572E-03    0.493E-02
DAV:  45    -0.315368288224E+02    0.90922E-05   -0.23200E-04  7792   0.243E-02    0.264E-02
DAV:  46    -0.315368369937E+02   -0.81713E-05   -0.34027E-06  7488   0.239E-02    0.191E-02
DAV:  47    -0.315368379210E+02   -0.92725E-06   -0.13033E-06  7824   0.531E-03    0.493E-02
DAV:  48    -0.315368284457E+02    0.94752E-05   -0.23852E-04  7760   0.249E-02    0.267E-02
DAV:  49    -0.315368372990E+02   -0.88532E-05   -0.36196E-06  7392   0.245E-02    0.188E-02
DAV:  50    -0.315368379274E+02   -0.62842E-06   -0.70902E-07  7344   0.470E-03    0.493E-02
DAV:  51    -0.315368284808E+02    0.94466E-05   -0.23781E-04  7776   0.248E-02    0.267E-02
DAV:  52    -0.315368367964E+02   -0.83156E-05   -0.34691E-06  7488   0.241E-02    0.193E-02
DAV:  53    -0.315368368054E+02   -0.90458E-08   -0.14073E-07  5488   0.381E-03    0.185E-02
DAV:  54    -0.315368373203E+02   -0.51486E-06   -0.10191E-08  2880   0.136E-03    0.180E-02
DAV:  55    -0.315368378748E+02   -0.55450E-06   -0.39771E-06  2912   0.164E-03    0.495E-02
DAV:  56    -0.315368290552E+02    0.88196E-05   -0.22813E-04  7632   0.243E-02    0.261E-02
DAV:  57    -0.315368364001E+02   -0.73450E-05   -0.31828E-06  7520   0.233E-02    0.196E-02
DAV:  58    -0.315368367356E+02   -0.33551E-06   -0.14339E-07  5920   0.420E-03    0.186E-02
DAV:  59    -0.315368379537E+02   -0.12180E-05   -0.15108E-05  6992   0.480E-03    0.502E-02
DAV:  60    -0.315368283764E+02    0.95773E-05   -0.23962E-04  7616   0.262E-02
   1 F= -.31536828E+02 E0= -.31536828E+02  d E =0.000000E+00  mag=     0.0000
 writing wavefunctions
