 running on   24 total cores
 distrk:  each k-point on   24 cores,    1 groups
 distr:  one band on    6 cores,    4 groups
 using from now: INCAR     
 vasp.5.4.4.18Apr17-6-g9f103f2a35 (build Jan 03 2018 06:08:52) complex          
  
 POSCAR found :  2 types and       3 ions
 scaLAPACK will be used
 WARNING: for PREC=h ENMAX is automatically increase by 25 %
        this was not the case for versions prior to vasp.4.4
 WARNING: for PREC=h ENMAX is automatically increase by 25 %
        this was not the case for versions prior to vasp.4.4
 LDA part: xc-table for Pade appr. of Perdew
 POSCAR, INCAR and KPOINTS ok, starting setup
 FFT: planning ...
 WAVECAR not read
 entering main loop
       N       E                     dE             d eps       ncg     rms          rms(c)
DAV:   1     0.332467850527E+03    0.33247E+03   -0.21983E+04  5768   0.174E+03
DAV:   2    -0.802343398732E+01   -0.34049E+03   -0.32946E+03  4848   0.512E+02
DAV:   3    -0.187405491457E+02   -0.10717E+02   -0.10426E+02  6040   0.111E+02
DAV:   4    -0.189086707443E+02   -0.16812E+00   -0.16808E+00  5328   0.134E+01
DAV:   5    -0.189141690392E+02   -0.54983E-02   -0.54982E-02  6024   0.251E+00    0.176E+01
DAV:   6    -0.237805908622E+02   -0.48664E+01   -0.47666E+01  5904   0.117E+02    0.255E+01
DAV:   7    -0.156763398688E+02    0.81043E+01   -0.20526E+01  5728   0.701E+01    0.273E+00
DAV:   8    -0.156840634932E+02   -0.77236E-02   -0.63659E-01  6384   0.858E+00    0.133E+00
DAV:   9    -0.156699269811E+02    0.14137E-01   -0.66050E-02  5840   0.354E+00    0.434E-01
DAV:  10    -0.156689799156E+02    0.94707E-03   -0.36488E-03  5680   0.690E-01    0.228E-01
DAV:  11    -0.156689150383E+02    0.64877E-04   -0.51803E-04  6488   0.363E-01    0.783E-02
DAV:  12    -0.156689033198E+02    0.11719E-04   -0.16550E-04  5816   0.160E-01    0.334E-02
DAV:  13    -0.156688971556E+02    0.61642E-05   -0.28954E-05  6584   0.682E-02    0.931E-03
DAV:  14    -0.156688973029E+02   -0.14731E-06   -0.38663E-06  5896   0.242E-02    0.402E-03
DAV:  15    -0.156688965009E+02    0.80201E-06   -0.43267E-07  6136   0.904E-03    0.154E-03
DAV:  16    -0.156688966304E+02   -0.12955E-06   -0.49180E-08  5536   0.309E-03    0.747E-04
DAV:  17    -0.156688963956E+02    0.23483E-06   -0.44540E-09  3048   0.884E-04    0.343E-04
DAV:  18    -0.156688963276E+02    0.67955E-07   -0.22589E-09  2728   0.587E-04    0.896E-05
DAV:  19    -0.156688963085E+02    0.19144E-07   -0.72113E-10  2560   0.278E-04    0.539E-05
DAV:  20    -0.156688963128E+02   -0.42928E-08   -0.11872E-10  2520   0.128E-04
   1 F= -.15668896E+02 E0= -.15668803E+02  d E =-.156689E+02  mag=     0.5273
 curvature:   0.00 expect dE= 0.000E+00 dE for cont linesearch  0.000E+00
 trial: gam= 0.00000 g(F)=  0.187E-01 g(S)=  0.990E+00 ort = 0.000E+00 (trialstep = 0.100E+01)
 search vector abs. value=  0.101E+01
 bond charge predicted
       N       E                     dE             d eps       ncg     rms          rms(c)
DAV:   1    -0.600839469900E+02   -0.44415E+02   -0.52329E+02  4800   0.411E+02    0.545E+01
DAV:   2    -0.432697835890E+02    0.16814E+02   -0.33358E+02  5960   0.236E+02    0.427E+01
DAV:   3    -0.197958379938E+02    0.23474E+02   -0.11142E+02  6128   0.151E+02    0.193E+01
DAV:   4    -0.162624203330E+02    0.35334E+01   -0.14985E+01  5616   0.549E+01    0.276E+00
DAV:   5    -0.160824048217E+02    0.18002E+00   -0.14757E+00  5288   0.177E+01    0.424E+00
DAV:   6    -0.159385634955E+02    0.14384E+00   -0.58836E-01  6064   0.110E+01    0.143E+00
DAV:   7    -0.159186724255E+02    0.19891E-01   -0.29248E-02  5976   0.267E+00    0.610E-01
DAV:   8    -0.159145864744E+02    0.40860E-02   -0.16554E-02  5232   0.181E+00    0.894E-02
DAV:   9    -0.159148466035E+02   -0.26013E-03   -0.68258E-04  5888   0.397E-01    0.151E-01
DAV:  10    -0.159146516212E+02    0.19498E-03   -0.23736E-04  6016   0.250E-01    0.423E-02
DAV:  11    -0.159146426275E+02    0.89937E-05   -0.51162E-05  6472   0.874E-02    0.372E-03
DAV:  12    -0.159146435144E+02   -0.88690E-06   -0.20038E-06  5152   0.160E-02    0.228E-03
DAV:  13    -0.159146436418E+02   -0.12738E-06   -0.41006E-07  6072   0.904E-03    0.322E-03
DAV:  14    -0.159146438170E+02   -0.17520E-06   -0.71925E-08  5232   0.362E-03    0.225E-03
DAV:  15    -0.159146439189E+02   -0.10191E-06   -0.22880E-08  3208   0.183E-03    0.198E-03
DAV:  16    -0.159146439870E+02   -0.68120E-07   -0.22087E-07  6032   0.575E-03    0.108E-03
DAV:  17    -0.159146440172E+02   -0.30172E-07   -0.47237E-08  4736   0.249E-03    0.581E-04
DAV:  18    -0.159146440284E+02   -0.11200E-07   -0.18099E-08  3144   0.161E-03    0.465E-04
DAV:  19    -0.159146440407E+02   -0.12294E-07   -0.53180E-08  4592   0.273E-03    0.304E-04
DAV:  20    -0.159146440554E+02   -0.14691E-07   -0.40912E-09  2568   0.877E-04    0.126E-04
DAV:  21    -0.159146440609E+02   -0.55416E-08   -0.95194E-09  2480   0.127E-03
   2 F= -.15914644E+02 E0= -.15914444E+02  d E =-.245748E+00  mag=     0.0001
 trial-energy change:   -0.245748  1 .order   -0.292072   -1.008498    0.424355
 step:   0.6603(harm=  0.7038)  dis= 0.00809  next Energy=   -15.988530 (dE=-0.320E+00)
 bond charge predicted
       N       E                     dE             d eps       ncg     rms          rms(c)
DAV:   1    -0.221900036519E+02   -0.62754E+01   -0.58354E+01  4864   0.122E+02    0.255E+01
DAV:   2    -0.294396640838E+02   -0.72497E+01   -0.83386E+01  5712   0.151E+02    0.280E+01
DAV:   3    -0.161244855642E+02    0.13315E+02   -0.34882E+01  5664   0.871E+01    0.274E+00
DAV:   4    -0.161729493483E+02   -0.48464E-01   -0.14799E+00  6384   0.135E+01    0.419E+00
DAV:   5    -0.159826455051E+02    0.19030E+00   -0.38526E-01  6352   0.982E+00    0.569E-01
DAV:   6    -0.159803955917E+02    0.22499E-02   -0.20464E-02  5120   0.132E+00    0.225E-01
DAV:   7    -0.159798793100E+02    0.51628E-03   -0.21515E-03  5984   0.643E-01    0.277E-02
DAV:   8    -0.159798796398E+02   -0.32979E-06   -0.14993E-04  5712   0.177E-01    0.412E-02
DAV:   9    -0.159798565143E+02    0.23126E-04   -0.31177E-05  6144   0.864E-02    0.655E-03
DAV:  10    -0.159798564852E+02    0.29027E-07   -0.31698E-06  5600   0.177E-02    0.997E-04
DAV:  11    -0.159798566450E+02   -0.15979E-06   -0.11217E-07  5800   0.401E-03    0.607E-04
DAV:  12    -0.159798565953E+02    0.49709E-07   -0.21315E-08  4704   0.158E-03    0.207E-04
DAV:  13    -0.159798565866E+02    0.87357E-08   -0.26147E-09  2800   0.467E-04
   3 F= -.15979857E+02 E0= -.15980169E+02  d E =-.310960E+00  mag=     0.0000
 curvature:  -0.34 expect dE=-0.422E-01 dE for cont linesearch -0.545E-04
 trial: gam= 0.10893 g(F)=  0.748E-02 g(S)=  0.115E+00 ort = 0.126E-01 (trialstep = 0.932E+00)
 search vector abs. value=  0.137E+00
 bond charge predicted
       N       E                     dE             d eps       ncg     rms          rms(c)
DAV:   1    -0.177103756427E+02   -0.17305E+01   -0.32305E+01  6272   0.132E+02    0.145E+01
DAV:   2    -0.196237228314E+02   -0.19133E+01   -0.22192E+01  5816   0.762E+01    0.161E+01
DAV:   3    -0.161432333209E+02    0.34805E+01   -0.97786E+00  5744   0.483E+01    0.260E+00
DAV:   4    -0.160578934772E+02    0.85340E-01   -0.22212E-01  5232   0.423E+00    0.106E+00
DAV:   5    -0.160410822894E+02    0.16811E-01   -0.36092E-02  5792   0.218E+00    0.163E-01
DAV:   6    -0.160410956452E+02   -0.13356E-04   -0.31449E-03  5464   0.780E-01    0.103E-01
DAV:   7    -0.160410778910E+02    0.17754E-04   -0.34036E-04  6048   0.280E-01    0.346E-02
DAV:   8    -0.160410797623E+02   -0.18713E-05   -0.42823E-05  5920   0.983E-02    0.813E-03
DAV:   9    -0.160410778629E+02    0.18994E-05   -0.48009E-06  6416   0.362E-02    0.292E-03
DAV:  10    -0.160410775818E+02    0.28114E-06   -0.37398E-07  6656   0.797E-03    0.714E-04
DAV:  11    -0.160410774488E+02    0.13299E-06   -0.16912E-08  4504   0.158E-03    0.337E-04
DAV:  12    -0.160410774628E+02   -0.13991E-07   -0.53926E-09  2656   0.128E-03    0.861E-05
DAV:  13    -0.160410774737E+02   -0.10948E-07   -0.93185E-10  2480   0.352E-04    0.228E-05
DAV:  14    -0.160410774811E+02   -0.74069E-08   -0.23388E-10  2496   0.152E-04
   4 F= -.16041077E+02 E0= -.16040796E+02  d E =-.612209E-01  mag=     0.0000
 trial-energy change:   -0.061221  1 .order   -0.058657   -0.115458   -0.001856
 step:   0.9455(harm=  0.9473)  dis= 0.00859  next Energy=   -16.041091 (dE=-0.612E-01)
 bond charge predicted
       N       E                     dE             d eps       ncg     rms          rms(c)
DAV:   1    -0.160414252671E+02   -0.34779E-03   -0.69714E-03  6208   0.186E+00    0.189E-01
DAV:   2    -0.160417620431E+02   -0.33678E-03   -0.40694E-03  5792   0.106E+00    0.235E-01
DAV:   3    -0.160411281832E+02    0.63386E-03   -0.15418E-03  5856   0.650E-01    0.500E-02
DAV:   4    -0.160410916392E+02    0.36544E-04   -0.59677E-05  5392   0.934E-02    0.683E-03
DAV:   5    -0.160410905834E+02    0.10558E-05   -0.55465E-06  5648   0.279E-02    0.245E-03
DAV:   6    -0.160410906051E+02   -0.21715E-07   -0.26258E-07  6064   0.735E-03    0.124E-03
DAV:   7    -0.160410907633E+02   -0.15820E-06   -0.39145E-08  5152   0.231E-03    0.324E-04
DAV:   8    -0.160410907447E+02    0.18595E-07   -0.34933E-09  2544   0.776E-04    0.652E-05
DAV:   9    -0.160410907371E+02    0.75779E-08   -0.53224E-10  2432   0.276E-04
   5 F= -.16041091E+02 E0= -.16040814E+02  d E =-.612342E-01  mag=     0.0000
 curvature:  -0.52 expect dE=-0.114E-03 dE for cont linesearch -0.155E-08
 trial: gam= 0.00278 g(F)=  0.203E-03 g(S)=  0.164E-04 ort = 0.203E-04 (trialstep = 0.935E+00)
 search vector abs. value=  0.221E-03
 bond charge predicted
       N       E                     dE             d eps       ncg     rms          rms(c)
DAV:   1    -0.160381646543E+02    0.29261E-02   -0.10120E-01  7504   0.153E+01    0.149E-01
DAV:   2    -0.160415278894E+02   -0.33632E-02   -0.33947E-02  4816   0.173E+00    0.159E-01
DAV:   3    -0.160412514007E+02    0.27649E-03   -0.13574E-03  5952   0.547E-01    0.481E-02
DAV:   4    -0.160412335559E+02    0.17845E-04   -0.65725E-05  6240   0.111E-01    0.242E-02
DAV:   5    -0.160412271910E+02    0.63649E-05   -0.59947E-06  6368   0.608E-02    0.100E-02
DAV:   6    -0.160412265275E+02    0.66352E-06   -0.28953E-06  6240   0.309E-02    0.140E-03
DAV:   7    -0.160412266023E+02   -0.74841E-07   -0.45239E-07  5424   0.127E-02    0.380E-04
DAV:   8    -0.160412265954E+02    0.69185E-08   -0.96706E-09  2712   0.159E-03
   6 F= -.16041227E+02 E0= -.16040932E+02  d E =-.135858E-03  mag=     0.0000
 trial-energy change:   -0.000136  1 .order   -0.000136   -0.000205   -0.000067
 step:   1.4048(harm=  1.3896)  dis= 0.00183  next Energy=   -16.041243 (dE=-0.153E-03)
 bond charge predicted
       N       E                     dE             d eps       ncg     rms          rms(c)
DAV:   1    -0.160404703926E+02    0.75621E-03   -0.25597E-02  7504   0.772E+00    0.758E-02
DAV:   2    -0.160413207025E+02   -0.85031E-03   -0.85923E-03  4816   0.871E-01    0.815E-02
DAV:   3    -0.160412482107E+02    0.72492E-04   -0.34859E-04  5936   0.279E-01    0.240E-02
DAV:   4    -0.160412443447E+02    0.38659E-05   -0.16516E-05  6208   0.555E-02    0.122E-02
DAV:   5    -0.160412428918E+02    0.14530E-05   -0.15097E-06  6496   0.310E-02    0.495E-03
DAV:   6    -0.160412427936E+02    0.98185E-07   -0.71573E-07  6208   0.152E-02    0.725E-04
DAV:   7    -0.160412428187E+02   -0.25128E-07   -0.10977E-07  5392   0.615E-03    0.186E-04
DAV:   8    -0.160412428154E+02    0.33260E-08   -0.23135E-09  2480   0.729E-04
   7 F= -.16041243E+02 E0= -.16040939E+02  d E =-.152078E-03  mag=     0.0000
 curvature:  -0.70 expect dE=-0.162E-05 dE for cont linesearch -0.143E-07
 trial: gam= 0.01578 g(F)=  0.820E-07 g(S)=  0.224E-05 ort =-0.213E-05 (trialstep = 0.103E+01)
 search vector abs. value=  0.231E-05
 reached required accuracy - stopping structural energy minimisation
 writing wavefunctions
