   4   4   0   0
  0.1217908E+02  0.4664194E-09  0.4664194E-09  0.4664194E-09  0.5000000E-15
  1.000000000000000E-004
  CAR 
 unknown system                          
     28.54851281    -58.50330694  301      8.97322717      1.00000000
    -58.503  0.0000E+00  0.0000E+00  0.0000E+00  0.0000E+00
    -58.213  0.0000E+00  0.0000E+00  0.0000E+00  0.0000E+00
    -57.923  0.0000E+00  0.0000E+00  0.0000E+00  0.0000E+00
    -57.633  0.0000E+00  0.0000E+00  0.0000E+00  0.0000E+00
    -57.343  0.0000E+00  0.0000E+00  0.0000E+00  0.0000E+00
    -57.052  0.0000E+00  0.0000E+00  0.0000E+00  0.0000E+00
    -56.762  0.0000E+00  0.0000E+00  0.0000E+00  0.0000E+00
    -56.472  0.0000E+00  0.0000E+00  0.0000E+00  0.0000E+00
    -56.182  0.0000E+00  0.0000E+00  0.0000E+00  0.0000E+00
    -55.892  0.0000E+00  0.0000E+00  0.0000E+00  0.0000E+00
    -55.602  0.0000E+00  0.0000E+00  0.0000E+00  0.0000E+00
    -55.311  0.0000E+00  0.0000E+00  0.0000E+00  0.0000E+00
    -55.021  0.0000E+00  0.0000E+00  0.0000E+00  0.0000E+00
    -54.731  0.0000E+00  0.0000E+00  0.0000E+00  0.0000E+00
    -54.441  0.5421E+02  0.5421E+02  0.5146E+01  0.5146E+01
    -54.151  0.0000E+00  0.0000E+00  0.6000E+01  0.6000E+01
    -53.861  0.0000E+00  0.0000E+00  0.6000E+01  0.6000E+01
    -53.570  0.0000E+00  0.0000E+00  0.6000E+01  0.6000E+01
    -53.280  0.0000E+00  0.0000E+00  0.6000E+01  0.6000E+01
    -52.990  0.0000E+00  0.0000E+00  0.6000E+01  0.6000E+01
    -52.700  0.0000E+00  0.0000E+00  0.6000E+01  0.6000E+01
    -52.410  0.0000E+00  0.0000E+00  0.6000E+01  0.6000E+01
    -52.120  0.0000E+00  0.0000E+00  0.6000E+01  0.6000E+01
    -51.829  0.0000E+00  0.0000E+00  0.6000E+01  0.6000E+01
    -51.539  0.0000E+00  0.0000E+00  0.6000E+01  0.6000E+01
    -51.249  0.0000E+00  0.0000E+00  0.6000E+01  0.6000E+01
    -50.959  0.0000E+00  0.0000E+00  0.6000E+01  0.6000E+01
    -50.669  0.0000E+00  0.0000E+00  0.6000E+01  0.6000E+01
    -50.378  0.0000E+00  0.0000E+00  0.6000E+01  0.6000E+01
    -50.088  0.0000E+00  0.0000E+00  0.6000E+01  0.6000E+01
    -49.798  0.0000E+00  0.0000E+00  0.6000E+01  0.6000E+01
    -49.508  0.0000E+00  0.0000E+00  0.6000E+01  0.6000E+01
    -49.218  0.0000E+00  0.0000E+00  0.6000E+01  0.6000E+01
    -48.928  0.0000E+00  0.0000E+00  0.6000E+01  0.6000E+01
    -48.637  0.0000E+00  0.0000E+00  0.6000E+01  0.6000E+01
    -48.347  0.0000E+00  0.0000E+00  0.6000E+01  0.6000E+01
    -48.057  0.0000E+00  0.0000E+00  0.6000E+01  0.6000E+01
    -47.767  0.0000E+00  0.0000E+00  0.6000E+01  0.6000E+01
    -47.477  0.0000E+00  0.0000E+00  0.6000E+01  0.6000E+01
    -47.187  0.0000E+00  0.0000E+00  0.6000E+01  0.6000E+01
    -46.896  0.0000E+00  0.0000E+00  0.6000E+01  0.6000E+01
    -46.606  0.0000E+00  0.0000E+00  0.6000E+01  0.6000E+01
    -46.316  0.0000E+00  0.0000E+00  0.6000E+01  0.6000E+01
    -46.026  0.0000E+00  0.0000E+00  0.6000E+01  0.6000E+01
    -45.736  0.0000E+00  0.0000E+00  0.6000E+01  0.6000E+01
    -45.446  0.0000E+00  0.0000E+00  0.6000E+01  0.6000E+01
    -45.155  0.0000E+00  0.0000E+00  0.6000E+01  0.6000E+01
    -44.865  0.0000E+00  0.0000E+00  0.6000E+01  0.6000E+01
    -44.575  0.0000E+00  0.0000E+00  0.6000E+01  0.6000E+01
    -44.285  0.0000E+00  0.0000E+00  0.6000E+01  0.6000E+01
    -43.995  0.0000E+00  0.0000E+00  0.6000E+01  0.6000E+01
    -43.704  0.0000E+00  0.0000E+00  0.6000E+01  0.6000E+01
    -43.414  0.0000E+00  0.0000E+00  0.6000E+01  0.6000E+01
    -43.124  0.0000E+00  0.0000E+00  0.6000E+01  0.6000E+01
    -42.834  0.0000E+00  0.0000E+00  0.6000E+01  0.6000E+01
    -42.544  0.0000E+00  0.0000E+00  0.6000E+01  0.6000E+01
    -42.254  0.0000E+00  0.0000E+00  0.6000E+01  0.6000E+01
    -41.963  0.0000E+00  0.0000E+00  0.6000E+01  0.6000E+01
    -41.673  0.0000E+00  0.0000E+00  0.6000E+01  0.6000E+01
    -41.383  0.0000E+00  0.0000E+00  0.6000E+01  0.6000E+01
    -41.093  0.0000E+00  0.0000E+00  0.6000E+01  0.6000E+01
    -40.803  0.0000E+00  0.0000E+00  0.6000E+01  0.6000E+01
    -40.513  0.0000E+00  0.0000E+00  0.6000E+01  0.6000E+01
    -40.222  0.0000E+00  0.0000E+00  0.6000E+01  0.6000E+01
    -39.932  0.0000E+00  0.0000E+00  0.6000E+01  0.6000E+01
    -39.642  0.0000E+00  0.0000E+00  0.6000E+01  0.6000E+01
    -39.352  0.0000E+00  0.0000E+00  0.6000E+01  0.6000E+01
    -39.062  0.0000E+00  0.0000E+00  0.6000E+01  0.6000E+01
    -38.772  0.0000E+00  0.0000E+00  0.6000E+01  0.6000E+01
    -38.481  0.0000E+00  0.0000E+00  0.6000E+01  0.6000E+01
    -38.191  0.0000E+00  0.0000E+00  0.6000E+01  0.6000E+01
    -37.901  0.0000E+00  0.0000E+00  0.6000E+01  0.6000E+01
    -37.611  0.0000E+00  0.0000E+00  0.6000E+01  0.6000E+01
    -37.321  0.0000E+00  0.0000E+00  0.6000E+01  0.6000E+01
    -37.031  0.0000E+00  0.0000E+00  0.6000E+01  0.6000E+01
    -36.740  0.0000E+00  0.0000E+00  0.6000E+01  0.6000E+01
    -36.450  0.0000E+00  0.0000E+00  0.6000E+01  0.6000E+01
    -36.160  0.0000E+00  0.0000E+00  0.6000E+01  0.6000E+01
    -35.870  0.0000E+00  0.0000E+00  0.6000E+01  0.6000E+01
    -35.580  0.0000E+00  0.0000E+00  0.6000E+01  0.6000E+01
    -35.289  0.0000E+00  0.0000E+00  0.6000E+01  0.6000E+01
    -34.999  0.0000E+00  0.0000E+00  0.6000E+01  0.6000E+01
    -34.709  0.0000E+00  0.0000E+00  0.6000E+01  0.6000E+01
    -34.419  0.0000E+00  0.0000E+00  0.6000E+01  0.6000E+01
    -34.129  0.0000E+00  0.0000E+00  0.6000E+01  0.6000E+01
    -33.839  0.0000E+00  0.0000E+00  0.6000E+01  0.6000E+01
    -33.548  0.0000E+00  0.0000E+00  0.6000E+01  0.6000E+01
    -33.258  0.0000E+00  0.0000E+00  0.6000E+01  0.6000E+01
    -32.968  0.0000E+00  0.0000E+00  0.6000E+01  0.6000E+01
    -32.678  0.0000E+00  0.0000E+00  0.6000E+01  0.6000E+01
    -32.388  0.0000E+00  0.0000E+00  0.6000E+01  0.6000E+01
    -32.098  0.0000E+00  0.0000E+00  0.6000E+01  0.6000E+01
    -31.807  0.0000E+00  0.0000E+00  0.6000E+01  0.6000E+01
    -31.517  0.0000E+00  0.0000E+00  0.6000E+01  0.6000E+01
    -31.227  0.0000E+00  0.0000E+00  0.6000E+01  0.6000E+01
    -30.937  0.0000E+00  0.0000E+00  0.6000E+01  0.6000E+01
    -30.647  0.0000E+00  0.0000E+00  0.6000E+01  0.6000E+01
    -30.357  0.0000E+00  0.0000E+00  0.6000E+01  0.6000E+01
    -30.066  0.0000E+00  0.0000E+00  0.6000E+01  0.6000E+01
    -29.776  0.0000E+00  0.0000E+00  0.6000E+01  0.6000E+01
    -29.486  0.0000E+00  0.0000E+00  0.6000E+01  0.6000E+01
    -29.196  0.0000E+00  0.0000E+00  0.6000E+01  0.6000E+01
    -28.906  0.0000E+00  0.0000E+00  0.6000E+01  0.6000E+01
    -28.616  0.0000E+00  0.0000E+00  0.6000E+01  0.6000E+01
    -28.325  0.0000E+00  0.0000E+00  0.6000E+01  0.6000E+01
    -28.035  0.0000E+00  0.0000E+00  0.6000E+01  0.6000E+01
    -27.745  0.0000E+00  0.0000E+00  0.6000E+01  0.6000E+01
    -27.455  0.0000E+00  0.0000E+00  0.6000E+01  0.6000E+01
    -27.165  0.0000E+00  0.0000E+00  0.6000E+01  0.6000E+01
    -26.874  0.0000E+00  0.0000E+00  0.6000E+01  0.6000E+01
    -26.584  0.0000E+00  0.0000E+00  0.6000E+01  0.6000E+01
    -26.294  0.0000E+00  0.0000E+00  0.6000E+01  0.6000E+01
    -26.004  0.0000E+00  0.0000E+00  0.6000E+01  0.6000E+01
    -25.714  0.0000E+00  0.0000E+00  0.6000E+01  0.6000E+01
    -25.424  0.0000E+00  0.0000E+00  0.6000E+01  0.6000E+01
    -25.133  0.0000E+00  0.0000E+00  0.6000E+01  0.6000E+01
    -24.843  0.0000E+00  0.0000E+00  0.6000E+01  0.6000E+01
    -24.553  0.0000E+00  0.0000E+00  0.6000E+01  0.6000E+01
    -24.263  0.0000E+00  0.0000E+00  0.6000E+01  0.6000E+01
    -23.973  0.0000E+00  0.0000E+00  0.6000E+01  0.6000E+01
    -23.683  0.0000E+00  0.0000E+00  0.6000E+01  0.6000E+01
    -23.392  0.0000E+00  0.0000E+00  0.6000E+01  0.6000E+01
    -23.102  0.0000E+00  0.0000E+00  0.6000E+01  0.6000E+01
    -22.812  0.0000E+00  0.0000E+00  0.6000E+01  0.6000E+01
    -22.522  0.0000E+00  0.0000E+00  0.6000E+01  0.6000E+01
    -22.232  0.0000E+00  0.0000E+00  0.6000E+01  0.6000E+01
    -21.942  0.0000E+00  0.0000E+00  0.6000E+01  0.6000E+01
    -21.651  0.0000E+00  0.0000E+00  0.6000E+01  0.6000E+01
    -21.361  0.0000E+00  0.0000E+00  0.6000E+01  0.6000E+01
    -21.071  0.0000E+00  0.0000E+00  0.6000E+01  0.6000E+01
    -20.781  0.0000E+00  0.0000E+00  0.6000E+01  0.6000E+01
    -20.491  0.0000E+00  0.0000E+00  0.6000E+01  0.6000E+01
    -20.201  0.0000E+00  0.0000E+00  0.6000E+01  0.6000E+01
    -19.910  0.0000E+00  0.0000E+00  0.6000E+01  0.6000E+01
    -19.620  0.0000E+00  0.0000E+00  0.6000E+01  0.6000E+01
    -19.330  0.0000E+00  0.0000E+00  0.6000E+01  0.6000E+01
    -19.040  0.0000E+00  0.0000E+00  0.6000E+01  0.6000E+01
    -18.750  0.0000E+00  0.0000E+00  0.6000E+01  0.6000E+01
    -18.459  0.0000E+00  0.0000E+00  0.6000E+01  0.6000E+01
    -18.169  0.0000E+00  0.0000E+00  0.6000E+01  0.6000E+01
    -17.879  0.0000E+00  0.0000E+00  0.6000E+01  0.6000E+01
    -17.589  0.0000E+00  0.0000E+00  0.6000E+01  0.6000E+01
    -17.299  0.0000E+00  0.0000E+00  0.6000E+01  0.6000E+01
    -17.009  0.0000E+00  0.0000E+00  0.6000E+01  0.6000E+01
    -16.718  0.0000E+00  0.0000E+00  0.6000E+01  0.6000E+01
    -16.428  0.0000E+00  0.0000E+00  0.6000E+01  0.6000E+01
    -16.138  0.0000E+00  0.0000E+00  0.6000E+01  0.6000E+01
    -15.848  0.0000E+00  0.0000E+00  0.6000E+01  0.6000E+01
    -15.558  0.0000E+00  0.0000E+00  0.6000E+01  0.6000E+01
    -15.268  0.0000E+00  0.0000E+00  0.6000E+01  0.6000E+01
    -14.977  0.0000E+00  0.0000E+00  0.6000E+01  0.6000E+01
    -14.687  0.0000E+00  0.0000E+00  0.6000E+01  0.6000E+01
    -14.397  0.0000E+00  0.0000E+00  0.6000E+01  0.6000E+01
    -14.107  0.0000E+00  0.0000E+00  0.6000E+01  0.6000E+01
    -13.817  0.0000E+00  0.0000E+00  0.6000E+01  0.6000E+01
    -13.527  0.0000E+00  0.0000E+00  0.6000E+01  0.6000E+01
    -13.236  0.0000E+00  0.0000E+00  0.6000E+01  0.6000E+01
    -12.946  0.0000E+00  0.0000E+00  0.6000E+01  0.6000E+01
    -12.656  0.0000E+00  0.0000E+00  0.6000E+01  0.6000E+01
    -12.366  0.0000E+00  0.0000E+00  0.6000E+01  0.6000E+01
    -12.076  0.0000E+00  0.0000E+00  0.6000E+01  0.6000E+01
    -11.785  0.0000E+00  0.0000E+00  0.6000E+01  0.6000E+01
    -11.495  0.0000E+00  0.0000E+00  0.6000E+01  0.6000E+01
    -11.205  0.0000E+00  0.0000E+00  0.6000E+01  0.6000E+01
    -10.915  0.0000E+00  0.0000E+00  0.6000E+01  0.6000E+01
    -10.625  0.0000E+00  0.0000E+00  0.6000E+01  0.6000E+01
    -10.335  0.0000E+00  0.0000E+00  0.6000E+01  0.6000E+01
    -10.044  0.0000E+00  0.0000E+00  0.6000E+01  0.6000E+01
     -9.754  0.0000E+00  0.0000E+00  0.6000E+01  0.6000E+01
     -9.464  0.0000E+00  0.0000E+00  0.6000E+01  0.6000E+01
     -9.174  0.0000E+00  0.0000E+00  0.6000E+01  0.6000E+01
     -8.884  0.0000E+00  0.0000E+00  0.6000E+01  0.6000E+01
     -8.594  0.0000E+00  0.0000E+00  0.6000E+01  0.6000E+01
     -8.303  0.0000E+00  0.0000E+00  0.6000E+01  0.6000E+01
     -8.013  0.0000E+00  0.0000E+00  0.6000E+01  0.6000E+01
     -7.723  0.0000E+00  0.0000E+00  0.6000E+01  0.6000E+01
     -7.433  0.0000E+00  0.0000E+00  0.6000E+01  0.6000E+01
     -7.143  0.0000E+00  0.0000E+00  0.6000E+01  0.6000E+01
     -6.853  0.0000E+00  0.0000E+00  0.6000E+01  0.6000E+01
     -6.562  0.0000E+00  0.0000E+00  0.6000E+01  0.6000E+01
     -6.272  0.0000E+00  0.0000E+00  0.6000E+01  0.6000E+01
     -5.982  0.0000E+00  0.0000E+00  0.6000E+01  0.6000E+01
     -5.692  0.0000E+00  0.0000E+00  0.6000E+01  0.6000E+01
     -5.402  0.0000E+00  0.0000E+00  0.6000E+01  0.6000E+01
     -5.112  0.0000E+00  0.0000E+00  0.6000E+01  0.6000E+01
     -4.821  0.0000E+00  0.0000E+00  0.6000E+01  0.6000E+01
     -4.531  0.0000E+00  0.0000E+00  0.6000E+01  0.6000E+01
     -4.241  0.0000E+00  0.0000E+00  0.6000E+01  0.6000E+01
     -3.951  0.0000E+00  0.0000E+00  0.6000E+01  0.6000E+01
     -3.661  0.0000E+00  0.0000E+00  0.6000E+01  0.6000E+01
     -3.370  0.0000E+00  0.0000E+00  0.6000E+01  0.6000E+01
     -3.080  0.0000E+00  0.0000E+00  0.6000E+01  0.6000E+01
     -2.790  0.0000E+00  0.0000E+00  0.6000E+01  0.6000E+01
     -2.500  0.0000E+00  0.0000E+00  0.6000E+01  0.6000E+01
     -2.210  0.0000E+00  0.0000E+00  0.6000E+01  0.6000E+01
     -1.920  0.2612E-02  0.2612E-02  0.6000E+01  0.6000E+01
     -1.629  0.8821E-01  0.8821E-01  0.6012E+01  0.6012E+01
     -1.339  0.1197E+00  0.1197E+00  0.6042E+01  0.6042E+01
     -1.049  0.1539E+00  0.1539E+00  0.6081E+01  0.6081E+01
     -0.759  0.1837E+00  0.1837E+00  0.6131E+01  0.6131E+01
     -0.469  0.2069E+00  0.2069E+00  0.6188E+01  0.6188E+01
     -0.179  0.2328E+00  0.2328E+00  0.6251E+01  0.6251E+01
      0.112  0.2656E+00  0.2656E+00  0.6324E+01  0.6324E+01
      0.402  0.3048E+00  0.3048E+00  0.6406E+01  0.6406E+01
      0.692  0.3611E+00  0.3611E+00  0.6500E+01  0.6500E+01
      0.982  0.4162E+00  0.4162E+00  0.6614E+01  0.6614E+01
      1.272  0.3859E+00  0.3859E+00  0.6733E+01  0.6733E+01
      1.562  0.3917E+00  0.3917E+00  0.6845E+01  0.6845E+01
      1.853  0.3136E+00  0.3136E+00  0.6944E+01  0.6944E+01
      2.143  0.3421E+00  0.3421E+00  0.7036E+01  0.7036E+01
      2.433  0.5002E+00  0.5002E+00  0.7157E+01  0.7157E+01
      2.723  0.4536E+00  0.4536E+00  0.7297E+01  0.7297E+01
      3.013  0.4813E+00  0.4813E+00  0.7429E+01  0.7429E+01
      3.303  0.5636E+00  0.5636E+00  0.7581E+01  0.7581E+01
      3.594  0.5410E+00  0.5410E+00  0.7751E+01  0.7751E+01
      3.884  0.5412E+00  0.5412E+00  0.7907E+01  0.7907E+01
      4.174  0.6644E+00  0.6644E+00  0.8080E+01  0.8080E+01
      4.464  0.1052E+01  0.1052E+01  0.8338E+01  0.8338E+01
      4.754  0.8837E+00  0.8837E+00  0.8622E+01  0.8622E+01
      5.045  0.5262E+00  0.5262E+00  0.8807E+01  0.8807E+01
      5.335  0.1216E+01  0.1216E+01  0.9091E+01  0.9091E+01
      5.625  0.1571E+01  0.1571E+01  0.9477E+01  0.9477E+01
      5.915  0.3895E+01  0.3895E+01  0.1012E+02  0.1012E+02
      6.205  0.3929E+01  0.3929E+01  0.1107E+02  0.1107E+02
      6.495  0.3665E+01  0.3665E+01  0.1246E+02  0.1246E+02
      6.786  0.2491E+01  0.2491E+01  0.1324E+02  0.1324E+02
      7.076  0.2266E+01  0.2266E+01  0.1410E+02  0.1410E+02
      7.366  0.2542E+01  0.2542E+01  0.1486E+02  0.1486E+02
      7.656  0.4610E+01  0.4610E+01  0.1632E+02  0.1632E+02
      7.946  0.4208E+01  0.4208E+01  0.1758E+02  0.1758E+02
      8.236  0.2013E+01  0.2013E+01  0.1830E+02  0.1830E+02
      8.527  0.8830E+00  0.8830E+00  0.1872E+02  0.1872E+02
      8.817  0.5766E+00  0.5766E+00  0.1892E+02  0.1892E+02
      9.107  0.4586E+00  0.4586E+00  0.1906E+02  0.1906E+02
      9.397  0.4824E+00  0.4824E+00  0.1920E+02  0.1920E+02
      9.687  0.5026E+00  0.5026E+00  0.1934E+02  0.1934E+02
      9.977  0.1008E+01  0.1008E+01  0.1953E+02  0.1953E+02
     10.268  0.5400E+00  0.5400E+00  0.1975E+02  0.1975E+02
     10.558  0.3608E+00  0.3608E+00  0.1987E+02  0.1987E+02
     10.848  0.6325E+00  0.6325E+00  0.2004E+02  0.2004E+02
     11.138  0.7323E+00  0.7323E+00  0.2021E+02  0.2021E+02
     11.428  0.7359E+00  0.7359E+00  0.2043E+02  0.2043E+02
     11.718  0.8515E+00  0.8515E+00  0.2066E+02  0.2066E+02
     12.009  0.8726E+00  0.8726E+00  0.2091E+02  0.2091E+02
     12.299  0.8092E+00  0.8092E+00  0.2116E+02  0.2116E+02
     12.589  0.7329E+00  0.7329E+00  0.2138E+02  0.2138E+02
     12.879  0.6771E+00  0.6771E+00  0.2159E+02  0.2159E+02
     13.169  0.6779E+00  0.6779E+00  0.2178E+02  0.2178E+02
     13.460  0.7833E+00  0.7833E+00  0.2199E+02  0.2199E+02
     13.750  0.7929E+00  0.7929E+00  0.2222E+02  0.2222E+02
     14.040  0.8213E+00  0.8213E+00  0.2246E+02  0.2246E+02
     14.330  0.7605E+00  0.7605E+00  0.2269E+02  0.2269E+02
     14.620  0.7371E+00  0.7371E+00  0.2291E+02  0.2291E+02
     14.910  0.8341E+00  0.8341E+00  0.2315E+02  0.2315E+02
     15.201  0.6776E+00  0.6776E+00  0.2337E+02  0.2337E+02
     15.491  0.6320E+00  0.6320E+00  0.2355E+02  0.2355E+02
     15.781  0.6187E+00  0.6187E+00  0.2374E+02  0.2374E+02
     16.071  0.5850E+00  0.5850E+00  0.2391E+02  0.2391E+02
     16.361  0.8026E+00  0.8026E+00  0.2410E+02  0.2410E+02
     16.651  0.1149E+01  0.1149E+01  0.2437E+02  0.2437E+02
     16.942  0.9970E+00  0.9970E+00  0.2471E+02  0.2471E+02
     17.232  0.6174E+00  0.6174E+00  0.2495E+02  0.2495E+02
     17.522  0.6728E+00  0.6728E+00  0.2512E+02  0.2512E+02
     17.812  0.8268E+00  0.8268E+00  0.2534E+02  0.2534E+02
     18.102  0.8483E+00  0.8483E+00  0.2558E+02  0.2558E+02
     18.392  0.9163E+00  0.9163E+00  0.2583E+02  0.2583E+02
     18.683  0.7364E+00  0.7364E+00  0.2607E+02  0.2607E+02
     18.973  0.9023E+00  0.9023E+00  0.2630E+02  0.2630E+02
     19.263  0.9556E+00  0.9556E+00  0.2660E+02  0.2660E+02
     19.553  0.9630E+00  0.9630E+00  0.2688E+02  0.2688E+02
     19.843  0.7560E+00  0.7560E+00  0.2713E+02  0.2713E+02
     20.134  0.5606E+00  0.5606E+00  0.2732E+02  0.2732E+02
     20.424  0.5096E+00  0.5096E+00  0.2747E+02  0.2747E+02
     20.714  0.4251E+00  0.4251E+00  0.2762E+02  0.2762E+02
     21.004  0.2456E+00  0.2456E+00  0.2770E+02  0.2770E+02
     21.294  0.2121E+00  0.2121E+00  0.2777E+02  0.2777E+02
     21.584  0.1881E+00  0.1881E+00  0.2783E+02  0.2783E+02
     21.875  0.1567E+00  0.1567E+00  0.2790E+02  0.2790E+02
     22.165  0.8170E-01  0.8170E-01  0.2793E+02  0.2793E+02
     22.455  0.6283E-01  0.6283E-01  0.2795E+02  0.2795E+02
     22.745  0.4777E-01  0.4777E-01  0.2796E+02  0.2796E+02
     23.035  0.3485E-01  0.3485E-01  0.2798E+02  0.2798E+02
     23.325  0.2398E-01  0.2398E-01  0.2799E+02  0.2799E+02
     23.616  0.2167E-01  0.2167E-01  0.2799E+02  0.2799E+02
     23.906  0.1270E-01  0.1270E-01  0.2800E+02  0.2800E+02
     24.196  0.5871E-02  0.5871E-02  0.2800E+02  0.2800E+02
     24.486  0.1177E-02  0.1177E-02  0.2800E+02  0.2800E+02
     24.776  0.0000E+00  0.0000E+00  0.2800E+02  0.2800E+02
     25.066  0.0000E+00  0.0000E+00  0.2800E+02  0.2800E+02
     25.357  0.0000E+00  0.0000E+00  0.2800E+02  0.2800E+02
     25.647  0.0000E+00  0.0000E+00  0.2800E+02  0.2800E+02
     25.937  0.0000E+00  0.0000E+00  0.2800E+02  0.2800E+02
     26.227  0.0000E+00  0.0000E+00  0.2800E+02  0.2800E+02
     26.517  0.0000E+00  0.0000E+00  0.2800E+02  0.2800E+02
     26.807  0.0000E+00  0.0000E+00  0.2800E+02  0.2800E+02
     27.098  0.0000E+00  0.0000E+00  0.2800E+02  0.2800E+02
     27.388  0.0000E+00  0.0000E+00  0.2800E+02  0.2800E+02
     27.678  0.0000E+00  0.0000E+00  0.2800E+02  0.2800E+02
     27.968  0.0000E+00  0.0000E+00  0.2800E+02  0.2800E+02
     28.258  0.0000E+00  0.0000E+00  0.2800E+02  0.2800E+02
     28.549  0.0000E+00  0.0000E+00  0.2800E+02  0.2800E+02
