       N       E                     dE             d eps       ncg     rms          rms(c)
DAV:   1     0.357121238489E+03    0.35712E+03   -0.22676E+04  5456   0.150E+03
DAV:   2    -0.991164583760E+01   -0.36703E+03   -0.35373E+03  4556   0.454E+02
DAV:   3    -0.231593792238E+02   -0.13248E+02   -0.12961E+02  5180   0.104E+02
DAV:   4    -0.233964332123E+02   -0.23705E+00   -0.23673E+00  5012   0.135E+01
DAV:   5    -0.234038978406E+02   -0.74646E-02   -0.74643E-02  5104   0.254E+00    0.202E+01
DAV:   6    -0.296270743880E+02   -0.62232E+01   -0.57307E+01  4928   0.117E+02    0.250E+01
DAV:   7    -0.207587182415E+02    0.88684E+01   -0.21726E+01  4868   0.753E+01    0.229E+00
DAV:   8    -0.207461520468E+02    0.12566E-01   -0.96842E-01  5776   0.873E+00    0.158E+00
DAV:   9    -0.207196277447E+02    0.26524E-01   -0.14812E-01  5076   0.510E+00    0.683E-01
DAV:  10    -0.207144584735E+02    0.51693E-02   -0.18950E-02  5848   0.197E+00    0.126E-01
DAV:  11    -0.207144503718E+02    0.81017E-05   -0.66078E-04  4988   0.203E-01    0.875E-02
DAV:  12    -0.207143431540E+02    0.10722E-03   -0.18367E-04  6600   0.159E-01    0.187E-02
DAV:  13    -0.207143429976E+02    0.15648E-06   -0.24213E-05  6692   0.453E-02    0.777E-03
DAV:  14    -0.207143421051E+02    0.89251E-06   -0.14211E-06  5176   0.111E-02    0.447E-03
DAV:  15    -0.207143415676E+02    0.53747E-06   -0.42383E-07  6660   0.730E-03    0.922E-04
DAV:  16    -0.207143415113E+02    0.56232E-07   -0.65382E-08  6016   0.259E-03    0.348E-04
DAV:  17    -0.207143415175E+02   -0.61209E-08   -0.28389E-09  2700   0.485E-04
   1 F= -.20714342E+02 E0= -.20714135E+02  d E =-.207143E+02  mag=     0.0000
       N       E                     dE             d eps       ncg     rms          rms(c)
DAV:   1    -0.914687956770E+02   -0.70754E+02   -0.84015E+02  4584   0.454E+02    0.652E+01
DAV:   2    -0.493161410162E+02    0.42153E+02   -0.44137E+02  5416   0.225E+02    0.468E+01
DAV:   3    -0.304969741274E+02    0.18819E+02   -0.14475E+02  4800   0.158E+02    0.286E+01
DAV:   4    -0.216495066052E+02    0.88475E+01   -0.35754E+01  5008   0.847E+01    0.485E+00
DAV:   5    -0.214036592182E+02    0.24585E+00   -0.44240E+00  5136   0.276E+01    0.648E+00
DAV:   6    -0.209847090523E+02    0.41895E+00   -0.10065E+00  5312   0.123E+01    0.693E-01
DAV:   7    -0.209889119001E+02   -0.42028E-02   -0.32399E-02  4728   0.120E+00    0.902E-01
DAV:   8    -0.209806931035E+02    0.82188E-02   -0.24502E-02  5708   0.188E+00    0.102E-01
DAV:   9    -0.209805376235E+02    0.15548E-03   -0.11576E-03  5208   0.317E-01    0.277E-02
DAV:  10    -0.209805541601E+02   -0.16537E-04   -0.10145E-04  5088   0.124E-01    0.336E-02
DAV:  11    -0.209805435604E+02    0.10600E-04   -0.20657E-05  5132   0.600E-02    0.789E-03
DAV:  12    -0.209805430170E+02    0.54341E-06   -0.12260E-06  6380   0.969E-03    0.350E-03
DAV:  13    -0.209805427953E+02    0.22166E-06   -0.22278E-07  5176   0.568E-03    0.787E-04
DAV:  14    -0.209805427835E+02    0.11847E-07   -0.32117E-08  4184   0.183E-03    0.251E-04
DAV:  15    -0.209805427849E+02   -0.14070E-08   -0.41828E-09  2632   0.727E-04
   2 F= -.20980543E+02 E0= -.20980484E+02  d E =-.266201E+00  mag=    -0.0000
       N       E                     dE             d eps       ncg     rms          rms(c)
DAV:   1    -0.402244768108E+02   -0.19244E+02   -0.16543E+02  4840   0.160E+02    0.462E+01
DAV:   2    -0.638245681294E+02   -0.23600E+02   -0.29325E+02  4760   0.264E+02    0.442E+01
DAV:   3    -0.233902008571E+02    0.40434E+02   -0.10235E+02  5416   0.125E+02    0.109E+01
DAV:   4    -0.233775969570E+02    0.12604E-01   -0.10318E+00  4800   0.729E+00    0.106E+01
DAV:   5    -0.228186413156E+02    0.55896E+00   -0.14505E-01  5372   0.513E+00    0.885E+00
DAV:   6    -0.212979065962E+02    0.15207E+01   -0.25512E+00  5520   0.201E+01    0.264E+00
DAV:   7    -0.212740144001E+02    0.23892E-01   -0.17865E-01  5440   0.314E+00    0.233E+00
DAV:   8    -0.212394806943E+02    0.34534E-01   -0.38595E-02  5248   0.227E+00    0.143E+00
DAV:   9    -0.212188560772E+02    0.20625E-01   -0.90011E-03  4712   0.682E-01    0.956E-01
DAV:  10    -0.212056830039E+02    0.13173E-01   -0.26810E-02  4672   0.149E+00    0.438E-01
DAV:  11    -0.212029329406E+02    0.27501E-02   -0.59323E-03  6392   0.832E-01    0.678E-02
DAV:  12    -0.212029672929E+02   -0.34352E-04   -0.81860E-04  4968   0.252E-01    0.371E-02
DAV:  13    -0.212029490155E+02    0.18277E-04   -0.20283E-04  4828   0.143E-01    0.366E-02
DAV:  14    -0.212029398352E+02    0.91803E-05   -0.35496E-05  5244   0.753E-02    0.841E-04
DAV:  15    -0.212029400169E+02   -0.18165E-06   -0.97974E-07  4792   0.661E-03    0.183E-03
DAV:  16    -0.212029400109E+02    0.60290E-08   -0.59126E-08  5584   0.252E-03
   3 F= -.21202940E+02 E0= -.21202884E+02  d E =-.488598E+00  mag=     0.0000
       N       E                     dE             d eps       ncg     rms          rms(c)
DAV:   1    -0.221574441344E+02   -0.95450E+00   -0.21540E+01  4904   0.404E+01    0.797E+00
DAV:   2    -0.220652619370E+02    0.92182E-01   -0.45966E+00  4936   0.277E+01    0.780E+00
DAV:   3    -0.214292735975E+02    0.63599E+00   -0.23497E+00  4912   0.212E+01    0.308E+00
DAV:   4    -0.213028020261E+02    0.12647E+00   -0.27203E-01  6184   0.520E+00    0.429E-01
DAV:   5    -0.213021151278E+02    0.68690E-03   -0.22569E-02  5000   0.200E+00    0.151E-01
DAV:   6    -0.213020209526E+02    0.94175E-04   -0.10434E-03  5048   0.394E-01    0.458E-02
DAV:   7    -0.213020407938E+02   -0.19841E-04   -0.69614E-05  5360   0.914E-02    0.984E-03
DAV:   8    -0.213020395613E+02    0.12324E-05   -0.36920E-06  4848   0.170E-02    0.244E-03
DAV:   9    -0.213020393649E+02    0.19650E-06   -0.32238E-07  5824   0.711E-03    0.342E-04
DAV:  10    -0.213020393075E+02    0.57395E-07   -0.12164E-08  3032   0.126E-03    0.124E-04
DAV:  11    -0.213020392997E+02    0.77416E-08   -0.28745E-09  2568   0.432E-04
   4 F= -.21302039E+02 E0= -.21301997E+02  d E =-.990993E-01  mag=     0.0000
       N       E                     dE             d eps       ncg     rms          rms(c)
DAV:   1    -0.217161531722E+02   -0.41411E+00   -0.94264E+00  4928   0.273E+01    0.547E+00
DAV:   2    -0.217097523216E+02    0.64009E-02   -0.23764E+00  4944   0.205E+01    0.556E+00
DAV:   3    -0.213772008973E+02    0.33255E+00   -0.11724E+00  4936   0.152E+01    0.198E+00
DAV:   4    -0.213240279710E+02    0.53173E-01   -0.11261E-01  6120   0.333E+00    0.275E-01
DAV:   5    -0.213238591960E+02    0.16878E-03   -0.92324E-03  5000   0.121E+00    0.964E-02
DAV:   6    -0.213238316694E+02    0.27527E-04   -0.45831E-04  4972   0.279E-01    0.315E-02
DAV:   7    -0.213238373829E+02   -0.57135E-05   -0.36610E-05  5568   0.717E-02    0.742E-03
DAV:   8    -0.213238362928E+02    0.10901E-05   -0.22991E-06  4920   0.170E-02    0.116E-03
DAV:   9    -0.213238362536E+02    0.39157E-07   -0.95029E-08  6108   0.290E-03    0.327E-04
DAV:  10    -0.213238362123E+02    0.41335E-07   -0.27498E-09  2680   0.574E-04    0.710E-05
DAV:  11    -0.213238362088E+02    0.34479E-08   -0.59864E-10  2576   0.276E-04
   5 F= -.21323836E+02 E0= -.21323504E+02  d E =-.120896E+00  mag=    -0.0000
       N       E                     dE             d eps       ncg     rms          rms(c)
DAV:   1    -0.213241957538E+02   -0.35954E-03   -0.77638E-03  4928   0.803E-01    0.157E-01
DAV:   2    -0.213241984099E+02   -0.26561E-05   -0.19838E-03  4952   0.619E-01    0.164E-01
DAV:   3    -0.213239152578E+02    0.28315E-03   -0.94154E-04  4880   0.437E-01    0.573E-02
DAV:   4    -0.213238700373E+02    0.45221E-04   -0.99587E-05  6192   0.106E-01    0.689E-03
DAV:   5    -0.213238700964E+02   -0.59139E-07   -0.72160E-06  4896   0.339E-02    0.230E-03
DAV:   6    -0.213238699973E+02    0.99162E-07   -0.22562E-07  5512   0.604E-03    0.945E-04
DAV:   7    -0.213238699666E+02    0.30661E-07   -0.25624E-08  3872   0.162E-03    0.180E-04
DAV:   8    -0.213238699590E+02    0.76370E-08   -0.22008E-09  2416   0.551E-04
   6 F= -.21323870E+02 E0= -.21323540E+02  d E =-.120930E+00  mag=    -0.0000
       N       E                     dE             d eps       ncg     rms          rms(c)
DAV:   1    -0.217257943603E+02   -0.40192E+00   -0.31587E+00  4736   0.251E+01    0.671E+00
DAV:   2    -0.224923835666E+02   -0.76659E+00   -0.73267E+00  4856   0.392E+01    0.966E+00
DAV:   3    -0.213266530292E+02    0.11657E+01   -0.32433E+00  4864   0.260E+01    0.588E-01
DAV:   4    -0.213289832369E+02   -0.23302E-02   -0.87096E-02  4984   0.200E+00    0.669E-01
DAV:   5    -0.213241015691E+02    0.48817E-02   -0.12419E-02  5368   0.148E+00    0.735E-02
DAV:   6    -0.213240568849E+02    0.44684E-04   -0.36301E-04  5048   0.129E-01    0.104E-02
DAV:   7    -0.213240546174E+02    0.22675E-05   -0.11368E-05  5440   0.240E-02    0.347E-03
DAV:   8    -0.213240538601E+02    0.75734E-06   -0.88193E-07  4932   0.843E-03    0.320E-03
DAV:   9    -0.213240535630E+02    0.29708E-06   -0.26034E-07  5880   0.656E-03    0.259E-04
DAV:  10    -0.213240535805E+02   -0.17469E-07   -0.99541E-09  2856   0.779E-04    0.688E-05
DAV:  11    -0.213240535750E+02    0.54615E-08   -0.10929E-09  2496   0.345E-04
   7 F= -.21324054E+02 E0= -.21323705E+02  d E =-.183616E-03  mag=    -0.0000
       N       E                     dE             d eps       ncg     rms          rms(c)
DAV:   1    -0.214158443773E+02   -0.91791E-01   -0.72150E-01  4728   0.122E+01    0.311E+00
DAV:   2    -0.215777545015E+02   -0.16191E+00   -0.17884E+00  4864   0.181E+01    0.476E+00
DAV:   3    -0.213261561067E+02    0.25160E+00   -0.69032E-01  4856   0.119E+01    0.401E-01
DAV:   4    -0.213253371325E+02    0.81897E-03   -0.12182E-02  4640   0.895E-01    0.108E-01
DAV:   5    -0.213252440689E+02    0.93064E-04   -0.28222E-04  6344   0.177E-01    0.186E-02
DAV:   6    -0.213252418671E+02    0.22018E-05   -0.20349E-05  4776   0.515E-02    0.358E-03
DAV:   7    -0.213252420270E+02   -0.15994E-06   -0.14955E-06  6096   0.150E-02    0.236E-03
DAV:   8    -0.213252425179E+02   -0.49092E-06   -0.10842E-07  5536   0.414E-03    0.291E-04
DAV:   9    -0.213252425219E+02   -0.40018E-08   -0.40622E-09  2616   0.608E-04
   8 F= -.21325243E+02 E0= -.21324901E+02  d E =-.137256E-02  mag=    -0.0000
