       N       E                     dE             d eps       ncg     rms          rms(c)
DAV:   1     0.620879438896E+03    0.62088E+03   -0.31994E+04 12376   0.174E+03
DAV:   2     0.562565056907E+01   -0.61525E+03   -0.59335E+03 10544   0.552E+02
DAV:   3    -0.296927010707E+02   -0.35318E+02   -0.33778E+02 11764   0.151E+02
DAV:   4    -0.306468087065E+02   -0.95411E+00   -0.94780E+00 11520   0.238E+01
DAV:   5    -0.306711054720E+02   -0.24297E-01   -0.24294E-01 12064   0.400E+00    0.226E+01
DAV:   6    -0.390077204730E+02   -0.83366E+01   -0.89704E+01 12300   0.126E+02    0.316E+01
DAV:   7    -0.260308980611E+02    0.12977E+02   -0.35635E+01 12096   0.789E+01    0.434E+00
DAV:   8    -0.261128490003E+02   -0.81951E-01   -0.21816E+00 13488   0.130E+01    0.302E+00
DAV:   9    -0.261399677829E+02   -0.27119E-01   -0.81359E-01 12104   0.127E+01    0.375E+00
DAV:  10    -0.260438144442E+02    0.96153E-01   -0.30393E-01 12488   0.951E+00    0.467E-01
DAV:  11    -0.260451790168E+02   -0.13646E-02   -0.20762E-02 11224   0.114E+00    0.224E-01
DAV:  12    -0.260447361512E+02    0.44287E-03   -0.35617E-03 12736   0.675E-01    0.146E-01
DAV:  13    -0.260446115050E+02    0.12465E-03   -0.44984E-04 12488   0.242E-01    0.498E-02
DAV:  14    -0.260446000753E+02    0.11430E-04   -0.10596E-04 13388   0.103E-01    0.161E-02
DAV:  15    -0.260445998379E+02    0.23739E-06   -0.76403E-06 11596   0.282E-02    0.577E-03
DAV:  16    -0.260445993028E+02    0.53510E-06   -0.15123E-06 12484   0.131E-02    0.141E-03
DAV:  17    -0.260445992226E+02    0.80214E-07   -0.99579E-08 10324   0.301E-03    0.798E-04
DAV:  18    -0.260445991665E+02    0.56125E-07   -0.11107E-08  6556   0.101E-03    0.376E-04
DAV:  19    -0.260445991312E+02    0.35256E-07   -0.59759E-09  5748   0.849E-04    0.117E-04
DAV:  20    -0.260445991296E+02    0.16407E-08   -0.14292E-09  5620   0.402E-04
   1 F= -.26044599E+02 E0= -.26044573E+02  d E =-.260446E+02  mag=    -0.0000
       N       E                     dE             d eps       ncg     rms          rms(c)
DAV:   1    -0.105259682580E+03   -0.79215E+02   -0.96032E+02 10656   0.464E+02    0.710E+01
DAV:   2    -0.661187637663E+02    0.39141E+02   -0.58537E+02 12408   0.246E+02    0.534E+01
DAV:   3    -0.355643609964E+02    0.30554E+02   -0.22263E+02 12128   0.164E+02    0.285E+01
DAV:   4    -0.274824812996E+02    0.80819E+01   -0.31243E+01 12136   0.769E+01    0.100E+01
DAV:   5    -0.272953303281E+02    0.18715E+00   -0.75546E+00 13008   0.354E+01    0.750E+00
DAV:   6    -0.267355821013E+02    0.55975E+00   -0.32511E+00 12384   0.252E+01    0.509E+00
DAV:   7    -0.264893337414E+02    0.24625E+00   -0.71495E-01 12164   0.102E+01    0.569E-01
DAV:   8    -0.264843515497E+02    0.49822E-02   -0.37003E-02 11104   0.197E+00    0.290E-01
DAV:   9    -0.264836171558E+02    0.73439E-03   -0.50589E-03 11844   0.914E-01    0.124E-01
DAV:  10    -0.264836241372E+02   -0.69814E-05   -0.92762E-04 12016   0.477E-01    0.108E-01
DAV:  11    -0.264835696788E+02    0.54458E-04   -0.22502E-04 12476   0.228E-01    0.317E-02
DAV:  12    -0.264835662522E+02    0.34266E-05   -0.59923E-05 12104   0.749E-02    0.113E-02
DAV:  13    -0.264835654014E+02    0.85085E-06   -0.52187E-06 12384   0.312E-02    0.155E-03
DAV:  14    -0.264835655954E+02   -0.19405E-06   -0.40136E-07 11196   0.519E-03    0.709E-04
DAV:  15    -0.264835656102E+02   -0.14747E-07   -0.29546E-08  9012   0.190E-03    0.363E-04
DAV:  16    -0.264835655905E+02    0.19736E-07   -0.51840E-09  5716   0.739E-04    0.970E-05
DAV:  17    -0.264835655833E+02    0.71977E-08   -0.14241E-09  5592   0.364E-04
   2 F= -.26483566E+02 E0= -.26483219E+02  d E =-.438966E+00  mag=     0.0000
       N       E                     dE             d eps       ncg     rms          rms(c)
DAV:   1    -0.406489238297E+02   -0.14165E+02   -0.13352E+02 11148   0.149E+02    0.388E+01
DAV:   2    -0.579219496401E+02   -0.17273E+02   -0.22659E+02 11400   0.198E+02    0.407E+01
DAV:   3    -0.272144110915E+02    0.30708E+02   -0.82627E+01 11904   0.111E+02    0.566E+00
DAV:   4    -0.268062780478E+02    0.40813E+00   -0.29295E+00 13264   0.157E+01    0.408E+00
DAV:   5    -0.269547120420E+02   -0.14843E+00   -0.18318E+00 12648   0.218E+01    0.752E+00
DAV:   6    -0.266522845959E+02    0.30243E+00   -0.16474E+00 12168   0.140E+01    0.112E+00
DAV:   7    -0.266373914976E+02    0.14893E-01   -0.81044E-02 12124   0.305E+00    0.222E-01
DAV:   8    -0.266369713962E+02    0.42010E-03   -0.87602E-03 11024   0.807E-01    0.277E-01
DAV:   9    -0.266363974974E+02    0.57390E-03   -0.55659E-03 12016   0.880E-01    0.129E-01
DAV:  10    -0.266362391348E+02    0.15836E-03   -0.76815E-04 11928   0.329E-01    0.214E-02
DAV:  11    -0.266362336825E+02    0.54523E-05   -0.37367E-05 12540   0.722E-02    0.122E-02
DAV:  12    -0.266362316227E+02    0.20597E-05   -0.60921E-06 12632   0.304E-02    0.208E-03
DAV:  13    -0.266362315682E+02    0.54490E-07   -0.40697E-07 11428   0.790E-03    0.495E-04
DAV:  14    -0.266362315558E+02    0.12462E-07   -0.29910E-08  8660   0.175E-03    0.292E-04
DAV:  15    -0.266362315543E+02    0.14807E-08   -0.42772E-09  5844   0.799E-04
   3 F= -.26636232E+02 E0= -.26635985E+02  d E =-.591632E+00  mag=     0.0000
       N       E                     dE             d eps       ncg     rms          rms(c)
DAV:   1    -0.277539705266E+02   -0.11177E+01   -0.30419E+01 11328   0.127E+02    0.130E+01
DAV:   2    -0.301213473603E+02   -0.23674E+01   -0.29392E+01 12080   0.657E+01    0.159E+01
DAV:   3    -0.268649906098E+02    0.32564E+01   -0.97768E+00 12208   0.436E+01    0.287E+00
DAV:   4    -0.270140205598E+02   -0.14903E+00   -0.15675E+00 13188   0.195E+01    0.584E+00
DAV:   5    -0.267819820519E+02    0.23204E+00   -0.71576E-01 12496   0.157E+01    0.105E+00
DAV:   6    -0.267764125628E+02    0.55695E-02   -0.82370E-02 11188   0.287E+00    0.181E-01
DAV:   7    -0.267763743118E+02    0.38251E-04   -0.46100E-03 11204   0.727E-01    0.765E-02
DAV:   8    -0.267764171898E+02   -0.42878E-04   -0.29834E-04 13952   0.207E-01    0.381E-02
DAV:   9    -0.267764179000E+02   -0.71016E-06   -0.45892E-05 13360   0.112E-01    0.124E-02
DAV:  10    -0.267764158213E+02    0.20787E-05   -0.92536E-06 13704   0.459E-02    0.345E-03
DAV:  11    -0.267764156295E+02    0.19185E-06   -0.65509E-07 11524   0.111E-02    0.571E-04
DAV:  12    -0.267764155608E+02    0.68663E-07   -0.49109E-08 10832   0.225E-03    0.217E-04
DAV:  13    -0.267764155496E+02    0.11185E-07   -0.33422E-09  5844   0.704E-04    0.108E-04
DAV:  14    -0.267764155441E+02    0.55497E-08   -0.70442E-10  5732   0.247E-04
   4 F= -.26776416E+02 E0= -.26776084E+02  d E =-.140184E+00  mag=    -0.0000
       N       E                     dE             d eps       ncg     rms          rms(c)
DAV:   1    -0.274156704386E+02   -0.63925E+00   -0.18694E+01 11496   0.997E+01    0.993E+00
DAV:   2    -0.286312859790E+02   -0.12156E+01   -0.15971E+01 12064   0.495E+01    0.119E+01
DAV:   3    -0.268806327764E+02    0.17507E+01   -0.58767E+00 12000   0.305E+01    0.245E+00
DAV:   4    -0.268939158292E+02   -0.13283E-01   -0.56032E-01 14640   0.116E+01    0.390E+00
DAV:   5    -0.268085514352E+02    0.85364E-01   -0.46052E-01 12472   0.952E+00    0.498E-01
DAV:   6    -0.268074353018E+02    0.11161E-02   -0.19227E-02 11192   0.146E+00    0.133E-01
DAV:   7    -0.268073674610E+02    0.67841E-04   -0.12146E-03 12664   0.402E-01    0.486E-02
DAV:   8    -0.268073869663E+02   -0.19505E-04   -0.99608E-05 11544   0.103E-01    0.138E-02
DAV:   9    -0.268073849967E+02    0.19696E-05   -0.66377E-06 12112   0.261E-02    0.407E-03
DAV:  10    -0.268073846564E+02    0.34024E-06   -0.72237E-07 11848   0.805E-03    0.128E-03
DAV:  11    -0.268073845437E+02    0.11274E-06   -0.88656E-08 11604   0.385E-03    0.329E-04
DAV:  12    -0.268073845248E+02    0.18916E-07   -0.99235E-09  5960   0.128E-03    0.111E-04
DAV:  13    -0.268073845188E+02    0.59299E-08   -0.15812E-09  5748   0.470E-04
   5 F= -.26807385E+02 E0= -.26806904E+02  d E =-.171153E+00  mag=    -0.0000
       N       E                     dE             d eps       ncg     rms          rms(c)
DAV:   1    -0.271660910543E+02   -0.35871E+00   -0.19180E+01 12552   0.101E+02    0.806E+00
DAV:   2    -0.278890328398E+02   -0.72294E+00   -0.12396E+01 11456   0.413E+01    0.917E+00
DAV:   3    -0.269540273949E+02    0.93501E+00   -0.32314E+00 11976   0.228E+01    0.300E+00
DAV:   4    -0.270834471178E+02   -0.12942E+00   -0.12787E+00 12640   0.200E+01    0.610E+00
DAV:   5    -0.268504261550E+02    0.23302E+00   -0.10046E+00 12840   0.143E+01    0.387E-01
DAV:   6    -0.268510858786E+02   -0.65972E-03   -0.44416E-02 10984   0.204E+00    0.160E-01
DAV:   7    -0.268509390436E+02    0.14683E-03   -0.19972E-03 14072   0.483E-01    0.868E-02
DAV:   8    -0.268509474259E+02   -0.83823E-05   -0.30661E-04 11272   0.176E-01    0.285E-02
DAV:   9    -0.268509531983E+02   -0.57724E-05   -0.31400E-05 11568   0.869E-02    0.862E-03
DAV:  10    -0.268509529635E+02    0.23481E-06   -0.36713E-06 12376   0.322E-02    0.207E-03
DAV:  11    -0.268509530454E+02   -0.81847E-07   -0.42628E-07 11296   0.801E-03    0.500E-04
DAV:  12    -0.268509530736E+02   -0.28173E-07   -0.14643E-08  6320   0.165E-03    0.317E-04
DAV:  13    -0.268509530857E+02   -0.12131E-07   -0.64145E-09  5704   0.137E-03    0.795E-05
DAV:  14    -0.268509530840E+02    0.16553E-08   -0.18512E-09  5584   0.443E-04
   6 F= -.26850953E+02 E0= -.26851266E+02  d E =-.435686E-01  mag=    -0.0000
       N       E                     dE             d eps       ncg     rms          rms(c)
DAV:   1    -0.270940721995E+02   -0.24312E+00   -0.14971E+01 12640   0.895E+01    0.701E+00
DAV:   2    -0.276263955565E+02   -0.53232E+00   -0.91625E+00 11432   0.357E+01    0.785E+00
DAV:   3    -0.269461869333E+02    0.68021E+00   -0.23434E+00 11880   0.196E+01    0.262E+00
DAV:   4    -0.270517545283E+02   -0.10557E+00   -0.10371E+00 12544   0.176E+01    0.556E+00
DAV:   5    -0.268661520644E+02    0.18560E+00   -0.88246E-01 12760   0.130E+01    0.403E-01
DAV:   6    -0.268661475826E+02    0.44818E-05   -0.35784E-02 10992   0.186E+00    0.134E-01
DAV:   7    -0.268660667498E+02    0.80833E-04   -0.15963E-03 12992   0.409E-01    0.746E-02
DAV:   8    -0.268660766476E+02   -0.98978E-05   -0.16509E-04 11392   0.118E-01    0.239E-02
DAV:   9    -0.268660845191E+02   -0.78715E-05   -0.18611E-05 11696   0.577E-02    0.660E-03
DAV:  10    -0.268660839962E+02    0.52292E-06   -0.24939E-06 13144   0.289E-02    0.184E-03
DAV:  11    -0.268660840984E+02   -0.10227E-06   -0.30440E-07 11248   0.680E-03    0.485E-04
DAV:  12    -0.268660841149E+02   -0.16462E-07   -0.10750E-08  6056   0.143E-03    0.172E-04
DAV:  13    -0.268660841261E+02   -0.11252E-07   -0.32639E-09  5640   0.768E-04    0.891E-05
DAV:  14    -0.268660841277E+02   -0.15934E-08   -0.11589E-09  5496   0.430E-04
   7 F= -.26866084E+02 E0= -.26866223E+02  d E =-.586996E-01  mag=    -0.0000
       N       E                     dE             d eps       ncg     rms          rms(c)
DAV:   1    -0.278885221489E+02   -0.10224E+01   -0.25164E+01 11416   0.111E+02    0.122E+01
DAV:   2    -0.295554672360E+02   -0.16669E+01   -0.22571E+01 11528   0.611E+01    0.142E+01
DAV:   3    -0.269926439377E+02    0.25628E+01   -0.84700E+00 11768   0.378E+01    0.309E+00
DAV:   4    -0.271809684968E+02   -0.18832E+00   -0.17454E+00 13312   0.213E+01    0.713E+00
DAV:   5    -0.268924978764E+02    0.28847E+00   -0.13906E+00 12528   0.147E+01    0.512E-01
DAV:   6    -0.268924963637E+02    0.15127E-05   -0.49944E-02 10944   0.185E+00    0.191E-01
DAV:   7    -0.268923283154E+02    0.16805E-03   -0.16067E-03 13376   0.490E-01    0.910E-02
DAV:   8    -0.268923557170E+02   -0.27402E-04   -0.19285E-04 12488   0.143E-01    0.178E-02
DAV:   9    -0.268923516090E+02    0.41080E-05   -0.22416E-05 12936   0.804E-02    0.745E-03
DAV:  10    -0.268923508284E+02    0.78060E-06   -0.35615E-06 11160   0.275E-02    0.327E-03
DAV:  11    -0.268923507162E+02    0.11222E-06   -0.37919E-07 12088   0.101E-02    0.574E-04
DAV:  12    -0.268923506840E+02    0.32183E-07   -0.29600E-08  8480   0.195E-03    0.272E-04
DAV:  13    -0.268923506788E+02    0.52696E-08   -0.60178E-09  5608   0.112E-03
   8 F= -.26892351E+02 E0= -.26892155E+02  d E =-.262666E-01  mag=     0.0000
       N       E                     dE             d eps       ncg     rms          rms(c)
DAV:   1    -0.269318441308E+02   -0.39493E-01   -0.96852E-01 11400   0.217E+01    0.234E+00
DAV:   2    -0.269912779951E+02   -0.59434E-01   -0.85731E-01 11656   0.119E+01    0.279E+00
DAV:   3    -0.268972699264E+02    0.94008E-01   -0.30112E-01 11720   0.711E+00    0.615E-01
DAV:   4    -0.269029286675E+02   -0.56587E-02   -0.60959E-02 13992   0.399E+00    0.130E+00
DAV:   5    -0.268930085730E+02    0.99201E-02   -0.45258E-02 12704   0.312E+00    0.743E-02
DAV:   6    -0.268930261994E+02   -0.17626E-04   -0.17100E-03 10912   0.338E-01    0.346E-02
DAV:   7    -0.268930179386E+02    0.82607E-05   -0.44172E-05 14008   0.885E-02    0.190E-02
DAV:   8    -0.268930170143E+02    0.92436E-06   -0.66941E-06 12840   0.250E-02    0.296E-03
DAV:   9    -0.268930166169E+02    0.39742E-06   -0.75139E-07 12528   0.132E-02    0.137E-03
DAV:  10    -0.268930165017E+02    0.11512E-06   -0.72245E-08  9992   0.388E-03    0.364E-04
DAV:  11    -0.268930164742E+02    0.27527E-07   -0.81994E-09  5696   0.145E-03    0.101E-04
DAV:  12    -0.268930164687E+02    0.54715E-08   -0.23223E-09  5488   0.626E-04
   9 F= -.26893016E+02 E0= -.26892883E+02  d E =-.269323E-01  mag=     0.0000
       N       E                     dE             d eps       ncg     rms          rms(c)
DAV:   1    -0.269579959914E+02   -0.64980E-01   -0.11763E+01 13528   0.741E+01    0.464E+00
DAV:   2    -0.270085793835E+02   -0.50583E-01   -0.31294E+00 10888   0.192E+01    0.263E+00
DAV:   3    -0.271704226833E+02   -0.16184E+00   -0.13986E+00 12864   0.198E+01    0.684E+00
DAV:   4    -0.269170602929E+02    0.25336E+00   -0.15033E+00 12520   0.151E+01    0.915E-01
DAV:   5    -0.269131633086E+02    0.38970E-02   -0.72055E-02 11624   0.305E+00    0.382E-01
DAV:   6    -0.269112327104E+02    0.19306E-02   -0.60614E-03 12192   0.990E-01    0.123E-01
DAV:   7    -0.269111540025E+02    0.78708E-04   -0.61395E-04 14160   0.341E-01    0.474E-02
DAV:   8    -0.269111769335E+02   -0.22931E-04   -0.14387E-04 11088   0.150E-01    0.178E-02
DAV:   9    -0.269111783001E+02   -0.13666E-05   -0.12411E-05 11384   0.532E-02    0.420E-03
DAV:  10    -0.269111780664E+02    0.23372E-06   -0.89451E-07 11752   0.928E-03    0.134E-03
DAV:  11    -0.269111780343E+02    0.32143E-07   -0.15043E-07 12920   0.612E-03    0.294E-04
DAV:  12    -0.269111780250E+02    0.92768E-08   -0.95125E-09  5872   0.118E-03
  10 F= -.26911178E+02 E0= -.26911152E+02  d E =-.181616E-01  mag=     0.0000
       N       E                     dE             d eps       ncg     rms          rms(c)
DAV:   1    -0.269963476454E+02   -0.85170E-01   -0.16184E+01 13664   0.859E+01    0.548E+00
DAV:   2    -0.270718176101E+02   -0.75470E-01   -0.43271E+00 10920   0.228E+01    0.349E+00
DAV:   3    -0.272810064905E+02   -0.20919E+00   -0.20396E+00 12464   0.233E+01    0.799E+00
DAV:   4    -0.269460930697E+02    0.33491E+00   -0.22390E+00 12848   0.179E+01    0.184E+00
DAV:   5    -0.269205806433E+02    0.25512E-01   -0.14484E-01 11784   0.470E+00    0.384E-01
DAV:   6    -0.269185506991E+02    0.20299E-02   -0.94153E-03 11832   0.117E+00    0.175E-01
DAV:   7    -0.269183356300E+02    0.21507E-03   -0.12650E-03 15816   0.464E-01    0.542E-02
DAV:   8    -0.269183774726E+02   -0.41843E-04   -0.29212E-04 11008   0.219E-01    0.213E-02
DAV:   9    -0.269183745124E+02    0.29602E-05   -0.14344E-05 11552   0.540E-02    0.824E-03
DAV:  10    -0.269183736303E+02    0.88211E-06   -0.28135E-06 12960   0.208E-02    0.243E-03
DAV:  11    -0.269183736187E+02    0.11574E-07   -0.39723E-07 11576   0.104E-02    0.454E-04
DAV:  12    -0.269183736184E+02    0.28922E-09   -0.18006E-08  6448   0.168E-03
  11 F= -.26918374E+02 E0= -.26918203E+02  d E =-.253571E-01  mag=     0.0000
       N       E                     dE             d eps       ncg     rms          rms(c)
DAV:   1    -0.268319935847E+02    0.86380E-01   -0.40097E+00 14008   0.651E+01    0.203E+00
DAV:   2    -0.269503644221E+02   -0.11837E+00   -0.16260E+00 11008   0.116E+01    0.144E+00
DAV:   3    -0.269378504444E+02    0.12514E-01   -0.11638E-01 12208   0.465E+00    0.112E+00
DAV:   4    -0.269459211078E+02   -0.80707E-02   -0.15920E-01 12152   0.673E+00    0.179E+00
DAV:   5    -0.269240367223E+02    0.21884E-01   -0.77998E-02 12544   0.472E+00    0.985E-02
DAV:   6    -0.269241547695E+02   -0.11805E-03   -0.46043E-03 11032   0.541E-01    0.525E-02
DAV:   7    -0.269241444324E+02    0.10337E-04   -0.15937E-04 13816   0.143E-01    0.293E-02
DAV:   8    -0.269241482739E+02   -0.38414E-05   -0.20837E-05 12232   0.625E-02    0.733E-03
DAV:   9    -0.269241483815E+02   -0.10764E-06   -0.35940E-06 14080   0.288E-02    0.317E-03
DAV:  10    -0.269241483337E+02    0.47847E-07   -0.35747E-07 11972   0.909E-03    0.383E-04
DAV:  11    -0.269241483428E+02   -0.91713E-08   -0.29086E-08  8712   0.216E-03
  12 F= -.26924148E+02 E0= -.26923999E+02  d E =-.577472E-02  mag=    -0.0000
       N       E                     dE             d eps       ncg     rms          rms(c)
DAV:   1    -0.269114364842E+02    0.12712E-01   -0.56003E-01 14136   0.243E+01    0.768E-01
DAV:   2    -0.269283235695E+02   -0.16887E-01   -0.23166E-01 10984   0.442E+00    0.550E-01
DAV:   3    -0.269268731762E+02    0.14504E-02   -0.18634E-02 12028   0.204E+00    0.496E-01
DAV:   4    -0.269275392775E+02   -0.66610E-03   -0.24601E-02 12040   0.271E+00    0.641E-01
DAV:   5    -0.269245946333E+02    0.29446E-02   -0.10157E-02 13216   0.172E+00    0.384E-02
DAV:   6    -0.269246094386E+02   -0.14805E-04   -0.59090E-04 11016   0.202E-01    0.198E-02
DAV:   7    -0.269246088529E+02    0.58573E-06   -0.20131E-05 13344   0.543E-02    0.110E-02
DAV:   8    -0.269246096446E+02   -0.79166E-06   -0.27875E-06 12496   0.216E-02    0.287E-03
DAV:   9    -0.269246096780E+02   -0.33462E-07   -0.48740E-07 14292   0.107E-02    0.111E-03
DAV:  10    -0.269246096672E+02    0.10805E-07   -0.51499E-08  9768   0.330E-03    0.151E-04
DAV:  11    -0.269246096652E+02    0.19973E-08   -0.47631E-09  5672   0.937E-04
  13 F= -.26924610E+02 E0= -.26924463E+02  d E =-.623605E-02  mag=    -0.0000
       N       E                     dE             d eps       ncg     rms          rms(c)
DAV:   1    -0.270073813021E+02   -0.82772E-01   -0.61467E+00 11408   0.814E+01    0.551E+00
DAV:   2    -0.274713774736E+02   -0.46400E+00   -0.56959E+00 11632   0.291E+01    0.642E+00
DAV:   3    -0.269400399278E+02    0.53134E+00   -0.17581E+00 11616   0.173E+01    0.133E+00
DAV:   4    -0.269424432897E+02   -0.24034E-02   -0.12101E-01 14136   0.570E+00    0.147E+00
DAV:   5    -0.269268832733E+02    0.15560E-01   -0.59072E-02 13472   0.351E+00    0.303E-01
DAV:   6    -0.269261645172E+02    0.71876E-03   -0.47043E-03 11696   0.711E-01    0.853E-02
DAV:   7    -0.269260600659E+02    0.10445E-03   -0.81879E-04 12904   0.307E-01    0.621E-02
DAV:   8    -0.269260241298E+02    0.35936E-04   -0.14640E-04 11248   0.156E-01    0.121E-02
DAV:   9    -0.269260226058E+02    0.15240E-05   -0.74208E-06 12896   0.291E-02    0.258E-03
DAV:  10    -0.269260223618E+02    0.24400E-06   -0.81059E-07 11384   0.112E-02    0.126E-03
DAV:  11    -0.269260222797E+02    0.82042E-07   -0.73339E-08 11568   0.319E-03    0.224E-04
DAV:  12    -0.269260222718E+02    0.79344E-08   -0.26639E-09  5712   0.611E-04
  14 F= -.26926022E+02 E0= -.26925945E+02  d E =-.141261E-02  mag=    -0.0000
       N       E                     dE             d eps       ncg     rms          rms(c)
DAV:   1    -0.269362271986E+02   -0.10205E-01   -0.78041E-01 11384   0.286E+01    0.194E+00
DAV:   2    -0.269954060091E+02   -0.59179E-01   -0.76858E-01 11416   0.104E+01    0.229E+00
DAV:   3    -0.269280945979E+02    0.67311E-01   -0.20715E-01 11664   0.603E+00    0.399E-01
DAV:   4    -0.269269364746E+02    0.11581E-02   -0.65953E-03 11304   0.933E-01    0.194E-01
DAV:   5    -0.269276481184E+02   -0.71164E-03   -0.72860E-03 12264   0.154E+00    0.407E-01
DAV:   6    -0.269266485470E+02    0.99957E-03   -0.38974E-03 12120   0.108E+00    0.384E-02
DAV:   7    -0.269266396875E+02    0.88595E-05   -0.14694E-04 12128   0.102E-01    0.131E-02
DAV:   8    -0.269266396573E+02    0.30232E-07   -0.76162E-06 12608   0.370E-02    0.628E-03
DAV:   9    -0.269266401593E+02   -0.50200E-06   -0.11722E-06 14328   0.133E-02    0.127E-03
DAV:  10    -0.269266402394E+02   -0.80123E-07   -0.12758E-07 11424   0.473E-03    0.405E-04
DAV:  11    -0.269266402796E+02   -0.40249E-07   -0.86846E-09  5880   0.979E-04    0.967E-05
DAV:  12    -0.269266402821E+02   -0.24302E-08   -0.24536E-09  5528   0.641E-04
  15 F= -.26926640E+02 E0= -.26926533E+02  d E =-.203062E-02  mag=    -0.0000
       N       E                     dE             d eps       ncg     rms          rms(c)
DAV:   1    -0.268756897913E+02    0.50950E-01   -0.15763E+00 13312   0.448E+01    0.122E+00
DAV:   2    -0.269405366059E+02   -0.64847E-01   -0.76880E-01 11048   0.812E+00    0.112E+00
DAV:   3    -0.269348283349E+02    0.57083E-02   -0.95184E-02 11408   0.503E+00    0.102E+00
DAV:   4    -0.269309750082E+02    0.38533E-02   -0.51732E-02 11704   0.372E+00    0.579E-01
DAV:   5    -0.269278318878E+02    0.31431E-02   -0.79800E-03 12600   0.140E+00    0.924E-02
DAV:   6    -0.269277603774E+02    0.71510E-04   -0.83182E-04 12016   0.262E-01    0.296E-02
DAV:   7    -0.269277583029E+02    0.20745E-05   -0.63064E-05 11848   0.920E-02    0.178E-02
DAV:   8    -0.269277587681E+02   -0.46520E-06   -0.87259E-06 11760   0.344E-02    0.475E-03
DAV:   9    -0.269277588239E+02   -0.55792E-07   -0.11065E-06 13624   0.162E-02    0.144E-03
DAV:  10    -0.269277588111E+02    0.12824E-07   -0.14720E-07 11160   0.557E-03    0.423E-04
DAV:  11    -0.269277588167E+02   -0.56280E-08   -0.11075E-08  5672   0.168E-03
  16 F= -.26927759E+02 E0= -.26927759E+02  d E =-.111853E-02  mag=     0.0000
       N       E                     dE             d eps       ncg     rms          rms(c)
DAV:   1    -0.269272295719E+02    0.52924E-03   -0.16816E-02 13512   0.464E+00    0.126E-01
DAV:   2    -0.269279183835E+02   -0.68881E-03   -0.80972E-03 11056   0.855E-01    0.118E-01
DAV:   3    -0.269278493145E+02    0.69069E-04   -0.10413E-03 11464   0.538E-01    0.103E-01
DAV:   4    -0.269278078402E+02    0.41474E-04   -0.52612E-04 11840   0.412E-01    0.600E-02
DAV:   5    -0.269277744538E+02    0.33386E-04   -0.89682E-05 12680   0.148E-01    0.888E-03
DAV:   6    -0.269277735344E+02    0.91941E-06   -0.89250E-06 11840   0.266E-02    0.294E-03
DAV:   7    -0.269277734450E+02    0.89392E-07   -0.63714E-07 12344   0.961E-03    0.178E-03
DAV:   8    -0.269277734197E+02    0.25379E-07   -0.81705E-08 10768   0.334E-03    0.384E-04
DAV:   9    -0.269277734143E+02    0.54024E-08   -0.71291E-09  5576   0.127E-03
  17 F= -.26927773E+02 E0= -.26927762E+02  d E =-.113313E-02  mag=    -0.0000
       N       E                     dE             d eps       ncg     rms          rms(c)
DAV:   1    -0.269266547967E+02    0.11186E-02   -0.79163E-02 11520   0.882E+00    0.374E-01
DAV:   2    -0.269298768638E+02   -0.32221E-02   -0.43324E-02 11424   0.237E+00    0.428E-01
DAV:   3    -0.269290311742E+02    0.84569E-03   -0.12973E-02 12032   0.203E+00    0.379E-01
DAV:   4    -0.269282927126E+02    0.73846E-03   -0.55938E-03 12168   0.125E+00    0.155E-01
DAV:   5    -0.269280253790E+02    0.26733E-03   -0.75173E-04 13712   0.389E-01    0.185E-02
DAV:   6    -0.269280238453E+02    0.15337E-05   -0.60118E-05 11120   0.958E-02    0.799E-03
DAV:   7    -0.269280232082E+02    0.63708E-06   -0.38060E-06 12672   0.258E-02    0.273E-03
DAV:   8    -0.269280232049E+02    0.32942E-08   -0.49034E-07 12448   0.840E-03    0.116E-03
DAV:   9    -0.269280231938E+02    0.11103E-07   -0.46821E-08  9728   0.314E-03    0.261E-04
DAV:  10    -0.269280231915E+02    0.23174E-08   -0.48577E-09  5544   0.102E-03
  18 F= -.26928023E+02 E0= -.26928027E+02  d E =-.249777E-03  mag=    -0.0000
       N       E                     dE             d eps       ncg     rms          rms(c)
DAV:   1    -0.269278677891E+02    0.15540E-03   -0.10048E-02 11520   0.314E+00    0.133E-01
DAV:   2    -0.269282779453E+02   -0.41016E-03   -0.54865E-03 11392   0.848E-01    0.153E-01
DAV:   3    -0.269281715214E+02    0.10642E-03   -0.16767E-03 12120   0.730E-01    0.135E-01
DAV:   4    -0.269280758146E+02    0.95707E-04   -0.70061E-04 12200   0.456E-01    0.546E-02
DAV:   5    -0.269280419283E+02    0.33886E-04   -0.94315E-05 13728   0.138E-01    0.665E-03
DAV:   6    -0.269280416202E+02    0.30810E-06   -0.76132E-06 11112   0.343E-02    0.282E-03
DAV:   7    -0.269280414556E+02    0.16465E-06   -0.48672E-07 12776   0.922E-03    0.978E-04
DAV:   8    -0.269280414357E+02    0.19885E-07   -0.61804E-08 10664   0.307E-03    0.419E-04
DAV:   9    -0.269280414320E+02    0.36725E-08   -0.60998E-09  5592   0.117E-03
  19 F= -.26928041E+02 E0= -.26928050E+02  d E =-.268018E-03  mag=     0.0000
       N       E                     dE             d eps       ncg     rms          rms(c)
DAV:   1    -0.269278416732E+02    0.19976E-03   -0.67923E-03 14296   0.300E+00    0.498E-02
DAV:   2    -0.269280792269E+02   -0.23755E-03   -0.26433E-03 10736   0.418E-01    0.330E-02
DAV:   3    -0.269280961267E+02   -0.16900E-04   -0.20620E-04 13712   0.244E-01    0.581E-02
DAV:   4    -0.269280752683E+02    0.20858E-04   -0.99363E-05 12576   0.179E-01    0.133E-02
DAV:   5    -0.269280743253E+02    0.94295E-06   -0.12327E-05 13136   0.457E-02    0.864E-03
DAV:   6    -0.269280733615E+02    0.96381E-06   -0.28477E-06 12280   0.220E-02    0.154E-03
DAV:   7    -0.269280733477E+02    0.13846E-07   -0.18215E-07 12408   0.545E-03    0.707E-04
DAV:   8    -0.269280733372E+02    0.10481E-07   -0.12633E-08  5728   0.168E-03    0.154E-04
DAV:   9    -0.269280733349E+02    0.22701E-08   -0.35867E-09  5520   0.792E-04
  20 F= -.26928073E+02 E0= -.26928079E+02  d E =-.319029E-04  mag=    -0.0000
       N       E                     dE             d eps       ncg     rms          rms(c)
DAV:   1    -0.269280530561E+02    0.20281E-04   -0.64264E-04 14304   0.924E-01    0.153E-02
DAV:   2    -0.269280755259E+02   -0.22470E-04   -0.24979E-04 10752   0.128E-01    0.101E-02
DAV:   3    -0.269280770711E+02   -0.15451E-05   -0.19268E-05 13760   0.745E-02    0.178E-02
DAV:   4    -0.269280750973E+02    0.19738E-05   -0.93980E-06 12640   0.552E-02    0.414E-03
DAV:   5    -0.269280750298E+02    0.67481E-07   -0.11658E-06 13032   0.141E-02    0.265E-03
DAV:   6    -0.269280749092E+02    0.12060E-06   -0.26801E-07 11552   0.675E-03    0.470E-04
DAV:   7    -0.269280749037E+02    0.54970E-08   -0.14566E-08  5656   0.169E-03
  21 F= -.26928075E+02 E0= -.26928080E+02  d E =-.334717E-04  mag=     0.0000
       N       E                     dE             d eps       ncg     rms          rms(c)
DAV:   1    -0.269278411610E+02    0.23375E-03   -0.61896E-03 11760   0.299E+00    0.786E-02
DAV:   2    -0.269281451031E+02   -0.30394E-03   -0.34089E-03 11080   0.547E-01    0.707E-02
DAV:   3    -0.269280914523E+02    0.53651E-04   -0.32138E-04 11896   0.239E-01    0.311E-02
DAV:   4    -0.269280891736E+02    0.22787E-05   -0.52097E-05 12640   0.126E-01    0.335E-02
DAV:   5    -0.269280823151E+02    0.68584E-05   -0.41254E-05 12264   0.114E-01    0.121E-02
DAV:   6    -0.269280807208E+02    0.15944E-05   -0.53320E-06 13824   0.320E-02    0.179E-03
DAV:   7    -0.269280806597E+02    0.61038E-07   -0.63700E-07 11232   0.891E-03    0.136E-03
DAV:   8    -0.269280806377E+02    0.22050E-07   -0.47089E-08  9712   0.278E-03    0.398E-04
DAV:   9    -0.269280806200E+02    0.17639E-07   -0.44061E-09  5472   0.864E-04    0.117E-04
DAV:  10    -0.269280806170E+02    0.30414E-08   -0.12840E-09  5336   0.541E-04
  22 F= -.26928081E+02 E0= -.26928085E+02  d E =-.571329E-05  mag=     0.0000
       N       E                     dE             d eps       ncg     rms          rms(c)
DAV:   1    -0.269280725802E+02    0.80398E-05   -0.21122E-04 11712   0.552E-01    0.145E-02
DAV:   2    -0.269280833176E+02   -0.10737E-04   -0.11655E-04 11080   0.101E-01    0.130E-02
DAV:   3    -0.269280813131E+02    0.20045E-05   -0.10937E-05 11928   0.440E-02    0.573E-03
DAV:   4    -0.269280812076E+02    0.10552E-06   -0.17344E-06 12616   0.230E-02    0.610E-03
DAV:   5    -0.269280809688E+02    0.23881E-06   -0.13970E-06 12232   0.211E-02    0.229E-03
DAV:   6    -0.269280808679E+02    0.10086E-06   -0.18449E-07 13232   0.607E-03    0.333E-04
DAV:   7    -0.269280808558E+02    0.12107E-07   -0.19972E-08  5904   0.167E-03    0.249E-04
DAV:   8    -0.269280808536E+02    0.22847E-08   -0.36744E-09  5280   0.814E-04
  23 F= -.26928081E+02 E0= -.26928085E+02  d E =-.594986E-05  mag=     0.0000
