 running on   24 total cores
 distrk:  each k-point on   24 cores,    1 groups
 distr:  one band on    6 cores,    4 groups
 using from now: INCAR     
 vasp.5.4.4.18Apr17-6-g9f103f2a35 (build Jan 03 2018 06:08:52) complex          
  
 POSCAR found :  2 types and       8 ions
 scaLAPACK will be used
 WARNING: for PREC=h ENMAX is automatically increase by 25 %
        this was not the case for versions prior to vasp.4.4
 WARNING: for PREC=h ENMAX is automatically increase by 25 %
        this was not the case for versions prior to vasp.4.4
 LDA part: xc-table for Pade appr. of Perdew
 POSCAR, INCAR and KPOINTS ok, starting setup
 FFT: planning ...
 WAVECAR not read
 entering main loop
       N       E                     dE             d eps       ncg     rms          rms(c)
DAV:   1     0.111277592618E+04    0.11128E+04   -0.51697E+04  6936   0.177E+03
DAV:   2     0.311495558438E+02   -0.10816E+04   -0.10375E+04  5812   0.570E+02
DAV:   3    -0.472713076903E+02   -0.78421E+02   -0.73266E+02  6536   0.172E+02
DAV:   4    -0.499268931045E+02   -0.26556E+01   -0.26356E+01  6420   0.304E+01
DAV:   5    -0.499929095403E+02   -0.66016E-01   -0.65968E-01  6484   0.459E+00    0.291E+01
DAV:   6    -0.592531534574E+02   -0.92602E+01   -0.12115E+02  6468   0.113E+02    0.347E+01
DAV:   7    -0.436614115163E+02    0.15592E+02   -0.47988E+01  6448   0.720E+01    0.322E+00
DAV:   8    -0.440015002039E+02   -0.34009E+00   -0.27311E+00  7180   0.188E+01    0.597E+00
DAV:   9    -0.437398758737E+02    0.26162E+00   -0.52199E-01  6720   0.135E+01    0.165E+00
DAV:  10    -0.437179190921E+02    0.21957E-01   -0.14718E-01  6716   0.317E+00    0.542E-01
DAV:  11    -0.437143315927E+02    0.35875E-02   -0.11074E-02  6664   0.100E+00    0.207E-01
DAV:  12    -0.437143863648E+02   -0.54772E-04   -0.15019E-03  6848   0.380E-01    0.722E-02
DAV:  13    -0.437143772957E+02    0.90691E-05   -0.16397E-04  7364   0.101E-01    0.274E-02
DAV:  14    -0.437143734705E+02    0.38252E-05   -0.30642E-05  7252   0.590E-02    0.102E-02
DAV:  15    -0.437143729310E+02    0.53947E-06   -0.33253E-06  6200   0.163E-02    0.564E-03
DAV:  16    -0.437143723893E+02    0.54172E-06   -0.41606E-07  7264   0.542E-03    0.164E-03
DAV:  17    -0.437143721793E+02    0.21002E-06   -0.10489E-07  7100   0.264E-03    0.542E-04
DAV:  18    -0.437143721310E+02    0.48210E-07   -0.10898E-08  3592   0.103E-03    0.250E-04
DAV:  19    -0.437143721409E+02   -0.98589E-08   -0.22435E-09  3260   0.358E-04
   1 F= -.43714372E+02 E0= -.43714191E+02  d E =-.437144E+02  mag=    -0.0000
 curvature:   0.00 expect dE= 0.000E+00 dE for cont linesearch  0.000E+00
 trial: gam= 0.00000 g(F)=  0.662E-02 g(S)=  0.146E+01 ort = 0.000E+00 (trialstep = 0.100E+01)
 search vector abs. value=  0.147E+01
 bond charge predicted
       N       E                     dE             d eps       ncg     rms          rms(c)
DAV:   1    -0.126513398430E+03   -0.82799E+02   -0.86902E+02  5912   0.322E+02    0.761E+01
DAV:   2    -0.101469957753E+03    0.25043E+02   -0.70854E+02  6464   0.228E+02    0.642E+01
DAV:   3    -0.500079895191E+02    0.51462E+02   -0.22802E+02  6584   0.143E+02    0.251E+01
DAV:   4    -0.471249069367E+02    0.28831E+01   -0.25199E+01  6776   0.613E+01    0.243E+01
DAV:   5    -0.446940145915E+02    0.24309E+01   -0.26176E+01  6580   0.372E+01    0.721E+00
DAV:   6    -0.440563620449E+02    0.63765E+00   -0.16016E+00  6552   0.150E+01    0.306E+00
DAV:   7    -0.439533944656E+02    0.10297E+00   -0.36345E-01  6576   0.549E+00    0.607E-01
DAV:   8    -0.439521191846E+02    0.12753E-02   -0.68394E-02  6224   0.228E+00    0.397E-01
DAV:   9    -0.439514164095E+02    0.70278E-03   -0.62726E-03  6932   0.883E-01    0.198E-01
DAV:  10    -0.439512587106E+02    0.15770E-03   -0.79508E-04  6552   0.303E-01    0.550E-02
DAV:  11    -0.439512473361E+02    0.11374E-04   -0.10801E-04  8112   0.909E-02    0.115E-02
DAV:  12    -0.439512483848E+02   -0.10487E-05   -0.10888E-05  6016   0.310E-02    0.437E-03
DAV:  13    -0.439512486520E+02   -0.26715E-06   -0.33083E-07  7588   0.456E-03    0.159E-03
DAV:  14    -0.439512486749E+02   -0.22894E-07   -0.15839E-07  6064   0.310E-03    0.441E-04
DAV:  15    -0.439512486909E+02   -0.16025E-07   -0.21949E-08  4704   0.103E-03    0.272E-04
DAV:  16    -0.439512486923E+02   -0.13606E-08   -0.18329E-09  3132   0.440E-04
   2 F= -.43951249E+02 E0= -.43951714E+02  d E =-.236877E+00  mag=    -0.0000
 trial-energy change:   -0.236877  1 .order   -0.298795   -1.471482    0.873891
 step:   0.5891(harm=  0.6274)  dis= 0.00526  next Energy=   -44.135107 (dE=-0.421E+00)
 bond charge predicted
       N       E                     dE             d eps       ncg     rms          rms(c)
DAV:   1    -0.610268330092E+02   -0.17076E+02   -0.15356E+02  6112   0.117E+02    0.420E+01
DAV:   2    -0.777898167242E+02   -0.16763E+02   -0.25259E+02  6292   0.165E+02    0.451E+01
DAV:   3    -0.443725123056E+02    0.33417E+02   -0.89655E+01  6392   0.967E+01    0.450E+00
DAV:   4    -0.443141973067E+02    0.58315E-01   -0.46169E+00  6552   0.137E+01    0.497E+00
DAV:   5    -0.442811040581E+02    0.33093E-01   -0.13324E+00  6368   0.127E+01    0.458E+00
DAV:   6    -0.441265394559E+02    0.15456E+00   -0.36147E-01  6460   0.101E+01    0.373E-01
DAV:   7    -0.441314081452E+02   -0.48687E-02   -0.54452E-02  6936   0.175E+00    0.724E-01
DAV:   8    -0.441274314619E+02    0.39767E-02   -0.98061E-03  6656   0.111E+00    0.118E-01
DAV:   9    -0.441274165651E+02    0.14897E-04   -0.13417E-03  6496   0.311E-01    0.930E-02
DAV:  10    -0.441273654946E+02    0.51071E-04   -0.30705E-04  6472   0.244E-01    0.210E-02
DAV:  11    -0.441273639643E+02    0.15303E-05   -0.33864E-05  6824   0.636E-02    0.110E-02
DAV:  12    -0.441273628366E+02    0.11277E-05   -0.30055E-06  6540   0.167E-02    0.325E-03
DAV:  13    -0.441273627228E+02    0.11380E-06   -0.27291E-07  7600   0.409E-03    0.852E-04
DAV:  14    -0.441273627085E+02    0.14330E-07   -0.37881E-08  5212   0.136E-03    0.149E-04
DAV:  15    -0.441273627169E+02   -0.84365E-08   -0.70452E-09  3120   0.647E-04
   3 F= -.44127363E+02 E0= -.44127729E+02  d E =-.412991E+00  mag=    -0.0000
 curvature:  -0.31 expect dE=-0.315E-01 dE for cont linesearch -0.218E-05
 trial: gam= 0.07126 g(F)=  0.944E-03 g(S)=  0.101E+00 ort =-0.322E-02 (trialstep = 0.918E+00)
 search vector abs. value=  0.109E+00
 bond charge predicted
       N       E                     dE             d eps       ncg     rms          rms(c)
DAV:   1    -0.449768804098E+02   -0.84952E+00   -0.19363E+01  6288   0.376E+01    0.827E+00
DAV:   2    -0.449645554417E+02    0.12325E-01   -0.55490E+00  6376   0.245E+01    0.790E+00
DAV:   3    -0.443542987657E+02    0.61026E+00   -0.25574E+00  6304   0.191E+01    0.395E+00
DAV:   4    -0.444942437439E+02   -0.13994E+00   -0.12026E+00  6648   0.185E+01    0.735E+00
DAV:   5    -0.442016132865E+02    0.29263E+00   -0.13211E+00  7224   0.953E+00    0.863E-01
DAV:   6    -0.441992786303E+02    0.23347E-02   -0.52156E-02  6140   0.183E+00    0.271E-01
DAV:   7    -0.441989151916E+02    0.36344E-03   -0.41075E-03  7408   0.493E-01    0.730E-02
DAV:   8    -0.441989952925E+02   -0.80101E-04   -0.68350E-04  6316   0.203E-01    0.202E-02
DAV:   9    -0.441989951576E+02    0.13495E-06   -0.27332E-05  6528   0.442E-02    0.198E-02
DAV:  10    -0.441989924690E+02    0.26886E-05   -0.69653E-06  7064   0.312E-02    0.294E-03
DAV:  11    -0.441989923837E+02    0.85340E-07   -0.11553E-06  6196   0.710E-03    0.123E-03
DAV:  12    -0.441989923256E+02    0.58040E-07   -0.90150E-08  6224   0.218E-03    0.471E-04
DAV:  13    -0.441989923091E+02    0.16546E-07   -0.71828E-09  3332   0.756E-04    0.206E-04
DAV:  14    -0.441989923084E+02    0.70577E-09   -0.28270E-09  3084   0.461E-04
   4 F= -.44198992E+02 E0= -.44198842E+02  d E =-.716296E-01  mag=     0.0000
 trial-energy change:   -0.071630  1 .order   -0.072615   -0.093079   -0.052152
 step:   2.0874(harm=  2.0874)  dis= 0.00837  next Energy=   -44.233206 (dE=-0.106E+00)
 bond charge predicted
       N       E                     dE             d eps       ncg     rms          rms(c)
DAV:   1    -0.455720098284E+02   -0.13730E+01   -0.32717E+01  6288   0.487E+01    0.109E+01
DAV:   2    -0.456372294224E+02   -0.65220E-01   -0.10539E+01  6360   0.325E+01    0.107E+01
DAV:   3    -0.445554549308E+02    0.10818E+01   -0.52941E+00  6320   0.265E+01    0.579E+00
DAV:   4    -0.446574363657E+02   -0.10198E+00   -0.19049E+00  6680   0.217E+01    0.860E+00
DAV:   5    -0.442570601505E+02    0.40038E+00   -0.21771E+00  7392   0.111E+01    0.144E+00
DAV:   6    -0.442463802301E+02    0.10680E-01   -0.87068E-02  6448   0.274E+00    0.458E-01
DAV:   7    -0.442450831761E+02    0.12971E-02   -0.10032E-02  7636   0.820E-01    0.103E-01
DAV:   8    -0.442452925548E+02   -0.20938E-03   -0.21554E-03  5944   0.390E-01    0.340E-02
DAV:   9    -0.442452970009E+02   -0.44461E-05   -0.10079E-04  6448   0.111E-01    0.418E-02
DAV:  10    -0.442452863641E+02    0.10637E-04   -0.28842E-05  7596   0.653E-02    0.764E-03
DAV:  11    -0.442452860203E+02    0.34383E-06   -0.34011E-06  6584   0.126E-02    0.212E-03
DAV:  12    -0.442452858655E+02    0.15477E-06   -0.41034E-07  6568   0.556E-03    0.131E-03
DAV:  13    -0.442452858452E+02    0.20387E-07   -0.68814E-08  5608   0.298E-03    0.216E-04
DAV:  14    -0.442452858457E+02   -0.50204E-09   -0.38605E-09  3036   0.589E-04
   5 F= -.44245286E+02 E0= -.44244745E+02  d E =-.117923E+00  mag=    -0.0000
 curvature:  -1.12 expect dE=-0.837E-02 dE for cont linesearch -0.492E-02
 ZBRENT: increasing intervall
 opt :   4.4264  next Energy=   -44.214651 (dE=-0.873E-01)
 bond charge predicted
       N       E                     dE             d eps       ncg     rms          rms(c)
DAV:   1    -0.500288482963E+02   -0.57836E+01   -0.13961E+02  6360   0.986E+01    0.230E+01
DAV:   2    -0.500727299745E+02   -0.43882E-01   -0.47387E+01  6288   0.674E+01    0.210E+01
DAV:   3    -0.454437753687E+02    0.46290E+01   -0.19891E+01  6340   0.546E+01    0.112E+01
DAV:   4    -0.461542954595E+02   -0.71052E+00   -0.66970E+00  6944   0.410E+01    0.217E+01
DAV:   5    -0.444017721322E+02    0.17525E+01   -0.21311E+01  7432   0.221E+01    0.496E+00
DAV:   6    -0.442562983113E+02    0.14547E+00   -0.49813E-01  6756   0.741E+00    0.193E+00
DAV:   7    -0.442316456714E+02    0.24653E-01   -0.82115E-02  7368   0.261E+00    0.570E-01
DAV:   8    -0.442310068742E+02    0.63880E-03   -0.16916E-02  6416   0.784E-01    0.174E-01
DAV:   9    -0.442310292528E+02   -0.22379E-04   -0.17326E-03  7416   0.294E-01    0.957E-02
DAV:  10    -0.442310008248E+02    0.28428E-04   -0.40562E-04  6252   0.205E-01    0.204E-02
DAV:  11    -0.442309988621E+02    0.19628E-05   -0.21320E-05  6328   0.330E-02    0.133E-02
DAV:  12    -0.442309979454E+02    0.91667E-06   -0.41484E-06  7844   0.166E-02    0.117E-03
DAV:  13    -0.442309979770E+02   -0.31614E-07   -0.40727E-07  5800   0.409E-03    0.108E-03
DAV:  14    -0.442309979834E+02   -0.64138E-08   -0.71305E-08  5320   0.266E-03
   6 F= -.44230998E+02 E0= -.44230528E+02  d E =-.103635E+00  mag=     0.0000
 curvature:   6.96 expect dE= 0.728E+00 dE for cont linesearch  0.476E-01
 ZBRENT: bracketing found
 ZBRENT: interpolating
 opt :   3.1287  next Energy=   -44.256669 (dE=-0.129E+00)
 bond charge predicted
       N       E                     dE             d eps       ncg     rms          rms(c)
DAV:   1    -0.462668349548E+02   -0.20358E+01   -0.46500E+01  6160   0.596E+01    0.130E+01
DAV:   2    -0.464465311188E+02   -0.17970E+00   -0.16827E+01  6376   0.427E+01    0.138E+01
DAV:   3    -0.450690008327E+02    0.13775E+01   -0.90290E+00  6312   0.358E+01    0.129E+01
DAV:   4    -0.445526110260E+02    0.51639E+00   -0.73139E+00  6760   0.171E+01    0.515E+00
DAV:   5    -0.442882098153E+02    0.26440E+00   -0.50696E-01  7400   0.639E+00    0.204E+00
DAV:   6    -0.442587284074E+02    0.29481E-01   -0.86283E-02  7184   0.337E+00    0.477E-01
DAV:   7    -0.442574678709E+02    0.12605E-02   -0.13994E-02  7104   0.810E-01    0.151E-01
DAV:   8    -0.442575800924E+02   -0.11222E-03   -0.20384E-03  6080   0.373E-01    0.678E-02
DAV:   9    -0.442575766473E+02    0.34451E-05   -0.10870E-04  6508   0.908E-02    0.325E-02
DAV:  10    -0.442575739661E+02    0.26812E-05   -0.32824E-05  7064   0.668E-02    0.122E-02
DAV:  11    -0.442575734776E+02    0.48846E-06   -0.46493E-06  6776   0.224E-02    0.258E-03
DAV:  12    -0.442575735079E+02   -0.30297E-07   -0.35520E-07  6568   0.511E-03    0.591E-04
DAV:  13    -0.442575735907E+02   -0.82797E-07   -0.23046E-08  4940   0.121E-03    0.166E-04
DAV:  14    -0.442575735949E+02   -0.41837E-08   -0.30121E-09  3072   0.509E-04
   7 F= -.44257574E+02 E0= -.44257156E+02  d E =-.130211E+00  mag=    -0.0000
 curvature:  -1.67 expect dE=-0.446E-01 dE for cont linesearch -0.250E-03
 trial: gam= 0.35375 g(F)=  0.183E-02 g(S)=  0.249E-01 ort = 0.404E-02 (trialstep = 0.136E+01)
 search vector abs. value=  0.432E-01
 bond charge predicted
       N       E                     dE             d eps       ncg     rms          rms(c)
DAV:   1    -0.472122242956E+02   -0.29547E+01   -0.32202E+01  6192   0.611E+01    0.172E+01
DAV:   2    -0.502623767964E+02   -0.30502E+01   -0.56614E+01  6512   0.655E+01    0.227E+01
DAV:   3    -0.450121190940E+02    0.52503E+01   -0.23118E+01  6480   0.439E+01    0.980E+00
DAV:   4    -0.443422846294E+02    0.66983E+00   -0.27184E+00  6432   0.241E+01    0.296E+00
DAV:   5    -0.442593856495E+02    0.82899E-01   -0.36702E-01  6168   0.463E+00    0.667E-01
DAV:   6    -0.442567235818E+02    0.26621E-02   -0.24952E-02  6920   0.122E+00    0.253E-01
DAV:   7    -0.442565047946E+02    0.21879E-03   -0.40643E-03  6576   0.676E-01    0.175E-01
DAV:   8    -0.442564166278E+02    0.88167E-04   -0.13591E-03  6408   0.394E-01    0.833E-02
DAV:   9    -0.442563777469E+02    0.38881E-04   -0.19523E-04  6592   0.141E-01    0.905E-03
DAV:  10    -0.442563788807E+02   -0.11338E-05   -0.16200E-05  6288   0.260E-02    0.999E-03
DAV:  11    -0.442563785045E+02    0.37615E-06   -0.24636E-06  6720   0.146E-02    0.146E-03
DAV:  12    -0.442563784361E+02    0.68456E-07   -0.14910E-07  5856   0.291E-03    0.152E-03
DAV:  13    -0.442563784740E+02   -0.37911E-07   -0.67991E-08  4948   0.261E-03    0.263E-04
DAV:  14    -0.442563784683E+02    0.56825E-08   -0.58867E-09  3016   0.617E-04
   8 F= -.44256378E+02 E0= -.44255765E+02  d E =0.119513E-02  mag=    -0.0000
 trial-energy change:    0.001195  1 .order    0.001169   -0.038342    0.040681
 step:   0.6599(harm=  0.6599)  dis= 0.00217  next Energy=   -44.266876 (dE=-0.930E-02)
 bond charge predicted
       N       E                     dE             d eps       ncg     rms          rms(c)
DAV:   1    -0.450356212817E+02   -0.77924E+00   -0.83362E+00  6216   0.310E+01    0.892E+00
DAV:   2    -0.458572027387E+02   -0.82158E+00   -0.11827E+01  6440   0.339E+01    0.113E+01
DAV:   3    -0.443181644889E+02    0.15390E+01   -0.47431E+00  6476   0.230E+01    0.305E+00
DAV:   4    -0.443091470136E+02    0.90175E-02   -0.59792E-01  6468   0.763E+00    0.228E+00
DAV:   5    -0.442676122958E+02    0.41535E-01   -0.90458E-02  7600   0.356E+00    0.356E-01
DAV:   6    -0.442668895556E+02    0.72274E-03   -0.83754E-03  6412   0.733E-01    0.101E-01
DAV:   7    -0.442668306537E+02    0.58902E-04   -0.36210E-04  6424   0.161E-01    0.352E-02
DAV:   8    -0.442668248286E+02    0.58250E-05   -0.36388E-05  6360   0.439E-02    0.864E-03
DAV:   9    -0.442668229365E+02    0.18921E-05   -0.33682E-06  6396   0.162E-02    0.278E-03
DAV:  10    -0.442668224366E+02    0.49988E-06   -0.40359E-07  6460   0.642E-03    0.572E-04
DAV:  11    -0.442668224424E+02   -0.57989E-08   -0.30382E-08  4968   0.157E-03
   9 F= -.44266822E+02 E0= -.44266422E+02  d E =-.924885E-02  mag=     0.0000
 curvature:  -0.51 expect dE=-0.607E-03 dE for cont linesearch -0.108E-06
 trial: gam= 0.08924 g(F)=  0.771E-03 g(S)=  0.429E-03 ort =-0.961E-04 (trialstep = 0.122E+01)
 search vector abs. value=  0.153E-02
 bond charge predicted
       N       E                     dE             d eps       ncg     rms          rms(c)
DAV:   1    -0.442400270475E+02    0.26795E-01   -0.78708E-01  8184   0.254E+01    0.928E-01
DAV:   2    -0.442769487988E+02   -0.36922E-01   -0.43201E-01  6392   0.474E+00    0.890E-01
DAV:   3    -0.442693835255E+02    0.75653E-02   -0.44084E-02  6272   0.213E+00    0.400E-01
DAV:   4    -0.442702692598E+02   -0.88573E-03   -0.12532E-02  6996   0.132E+00    0.625E-01
DAV:   5    -0.442677949406E+02    0.24743E-02   -0.90008E-03  6864   0.964E-01    0.891E-02
DAV:   6    -0.442677200676E+02    0.74873E-04   -0.53588E-04  6488   0.171E-01    0.242E-02
DAV:   7    -0.442677203683E+02   -0.30072E-06   -0.58958E-05  6832   0.630E-02    0.121E-02
DAV:   8    -0.442677204310E+02   -0.62646E-07   -0.51076E-06  6424   0.187E-02    0.258E-03
DAV:   9    -0.442677203206E+02    0.11039E-06   -0.37166E-07  7112   0.530E-03    0.107E-03
DAV:  10    -0.442677202730E+02    0.47632E-07   -0.27559E-08  4768   0.194E-03    0.172E-04
DAV:  11    -0.442677202671E+02    0.58826E-08   -0.53849E-09  3028   0.657E-04
  10 F= -.44267720E+02 E0= -.44267298E+02  d E =-.897825E-03  mag=     0.0000
 trial-energy change:   -0.000898  1 .order   -0.000899   -0.001453   -0.000345
 step:   1.5994(harm=  1.5994)  dis= 0.00534  next Energy=   -44.267775 (dE=-0.953E-03)
 bond charge predicted
       N       E                     dE             d eps       ncg     rms          rms(c)
DAV:   1    -0.442651077954E+02    0.26125E-02   -0.76463E-02  8240   0.791E+00    0.290E-01
DAV:   2    -0.442686893103E+02   -0.35815E-02   -0.41251E-02  6376   0.148E+00    0.279E-01
DAV:   3    -0.442679336914E+02    0.75562E-03   -0.38908E-03  6280   0.660E-01    0.122E-01
DAV:   4    -0.442680116215E+02   -0.77930E-04   -0.12125E-03  7008   0.398E-01    0.192E-01
DAV:   5    -0.442677814707E+02    0.23015E-03   -0.86725E-04  6784   0.305E-01    0.293E-02
DAV:   6    -0.442677727296E+02    0.87410E-05   -0.52120E-05  6568   0.557E-02    0.733E-03
DAV:   7    -0.442677726011E+02    0.12853E-06   -0.58453E-06  6728   0.197E-02    0.370E-03
DAV:   8    -0.442677724775E+02    0.12364E-06   -0.47480E-07  6504   0.567E-03    0.798E-04
DAV:   9    -0.442677724254E+02    0.52096E-07   -0.34162E-08  5256   0.161E-03    0.323E-04
DAV:  10    -0.442677724148E+02    0.10536E-07   -0.31354E-09  2992   0.624E-04    0.513E-05
DAV:  11    -0.442677724118E+02    0.30341E-08   -0.93142E-10  2944   0.250E-04
  11 F= -.44267772E+02 E0= -.44267344E+02  d E =-.949969E-03  mag=     0.0000
 curvature:  -1.03 expect dE=-0.607E-05 dE for cont linesearch -0.439E-08
 trial: gam=-0.02607 g(F)=  0.630E-07 g(S)=  0.586E-05 ort =-0.256E-05 (trialstep = 0.130E+01)
 search vector abs. value=  0.709E-05
 bond charge predicted
       N       E                     dE             d eps       ncg     rms          rms(c)
DAV:   1    -0.442683624305E+02   -0.59002E-03   -0.57889E-03  6128   0.911E-01    0.250E-01
DAV:   2    -0.442690795267E+02   -0.71710E-03   -0.94623E-03  6432   0.958E-01    0.327E-01
DAV:   3    -0.442677925039E+02    0.12870E-02   -0.37655E-03  6432   0.613E-01    0.461E-02
DAV:   4    -0.442678121517E+02   -0.19648E-04   -0.25010E-04  6720   0.167E-01    0.768E-02
DAV:   5    -0.442677736114E+02    0.38540E-04   -0.10935E-04  6968   0.118E-01    0.720E-03
DAV:   6    -0.442677732015E+02    0.40982E-06   -0.56810E-06  6296   0.161E-02    0.257E-03
DAV:   7    -0.442677729984E+02    0.20317E-06   -0.25836E-07  7112   0.381E-03    0.110E-03
DAV:   8    -0.442677728449E+02    0.15348E-06   -0.29930E-08  5360   0.120E-03    0.256E-04
DAV:   9    -0.442677728121E+02    0.32793E-07   -0.28399E-09  2960   0.488E-04    0.725E-05
DAV:  10    -0.442677727928E+02    0.19285E-07   -0.53346E-10  2912   0.187E-04    0.285E-05
DAV:  11    -0.442677727929E+02   -0.12733E-09   -0.13232E-10  2904   0.106E-04
  12 F= -.44267773E+02 E0= -.44267347E+02  d E =-.381133E-06  mag=    -0.0000
 trial-energy change:   -0.000000  1 .order   -0.000000   -0.000008    0.000007
 step:   0.6894(harm=  0.6623)  dis= 0.00004  next Energy=   -44.267775 (dE=-0.210E-05)
 bond charge predicted
       N       E                     dE             d eps       ncg     rms          rms(c)
DAV:   1    -0.442679048397E+02   -0.13205E-03   -0.12678E-03  6128   0.426E-01    0.117E-01
DAV:   2    -0.442680567703E+02   -0.15193E-03   -0.20776E-03  6432   0.448E-01    0.153E-01
DAV:   3    -0.442677780755E+02    0.27869E-03   -0.82740E-04  6424   0.287E-01    0.216E-02
DAV:   4    -0.442677824551E+02   -0.43795E-05   -0.54596E-05  6736   0.781E-02    0.358E-02
DAV:   5    -0.442677743839E+02    0.80712E-05   -0.23809E-05  6968   0.545E-02    0.343E-03
DAV:   6    -0.442677743639E+02    0.19929E-07   -0.12445E-06  6264   0.757E-03    0.120E-03
DAV:   7    -0.442677744261E+02   -0.62220E-07   -0.56300E-08  6104   0.181E-03    0.509E-04
DAV:   8    -0.442677744949E+02   -0.68740E-07   -0.65326E-09  3000   0.606E-04    0.119E-04
DAV:   9    -0.442677745107E+02   -0.15854E-07   -0.13270E-09  2912   0.309E-04    0.478E-05
DAV:  10    -0.442677745205E+02   -0.97316E-08   -0.25479E-10  2904   0.142E-04
  13 F= -.44267775E+02 E0= -.44267348E+02  d E =-.210867E-05  mag=    -0.0000
 curvature:  -0.39 expect dE=-0.330E-06 dE for cont linesearch -0.175E-08
 trial: gam= 0.18711 g(F)=  0.229E-06 g(S)=  0.614E-06 ort =-0.178E-06 (trialstep = 0.117E+01)
 search vector abs. value=  0.103E-05
 reached required accuracy - stopping structural energy minimisation
 writing wavefunctions
