   8   8   0   0
  0.1231270E+02  0.4652045E-09  0.4652045E-09  0.4984490E-09  0.5000000E-15
  1.000000000000000E-004
  CAR 
 unknown system                          
     23.21276259    -58.65749189  301      8.83615089      1.00000000
    -58.657  0.0000E+00  0.0000E+00  0.0000E+00  0.0000E+00
    -58.385  0.0000E+00  0.0000E+00  0.0000E+00  0.0000E+00
    -58.112  0.0000E+00  0.0000E+00  0.0000E+00  0.0000E+00
    -57.839  0.0000E+00  0.0000E+00  0.0000E+00  0.0000E+00
    -57.566  0.0000E+00  0.0000E+00  0.0000E+00  0.0000E+00
    -57.293  0.0000E+00  0.0000E+00  0.0000E+00  0.0000E+00
    -57.020  0.0000E+00  0.0000E+00  0.0000E+00  0.0000E+00
    -56.747  0.0000E+00  0.0000E+00  0.0000E+00  0.0000E+00
    -56.474  0.0000E+00  0.0000E+00  0.0000E+00  0.0000E+00
    -56.201  0.0000E+00  0.0000E+00  0.0000E+00  0.0000E+00
    -55.928  0.0000E+00  0.0000E+00  0.0000E+00  0.0000E+00
    -55.656  0.0000E+00  0.0000E+00  0.0000E+00  0.0000E+00
    -55.383  0.0000E+00  0.0000E+00  0.0000E+00  0.0000E+00
    -55.110  0.0000E+00  0.0000E+00  0.0000E+00  0.0000E+00
    -54.837  0.0000E+00  0.0000E+00  0.4000E+01  0.4000E+01
    -54.564  0.0000E+00  0.0000E+00  0.6000E+01  0.6000E+01
    -54.291  0.0000E+00  0.0000E+00  0.1200E+02  0.1200E+02
    -54.018  0.0000E+00  0.0000E+00  0.1200E+02  0.1200E+02
    -53.745  0.0000E+00  0.0000E+00  0.1200E+02  0.1200E+02
    -53.472  0.0000E+00  0.0000E+00  0.1200E+02  0.1200E+02
    -53.199  0.0000E+00  0.0000E+00  0.1200E+02  0.1200E+02
    -52.927  0.0000E+00  0.0000E+00  0.1200E+02  0.1200E+02
    -52.654  0.0000E+00  0.0000E+00  0.1200E+02  0.1200E+02
    -52.381  0.0000E+00  0.0000E+00  0.1200E+02  0.1200E+02
    -52.108  0.0000E+00  0.0000E+00  0.1200E+02  0.1200E+02
    -51.835  0.0000E+00  0.0000E+00  0.1200E+02  0.1200E+02
    -51.562  0.0000E+00  0.0000E+00  0.1200E+02  0.1200E+02
    -51.289  0.0000E+00  0.0000E+00  0.1200E+02  0.1200E+02
    -51.016  0.0000E+00  0.0000E+00  0.1200E+02  0.1200E+02
    -50.743  0.0000E+00  0.0000E+00  0.1200E+02  0.1200E+02
    -50.470  0.0000E+00  0.0000E+00  0.1200E+02  0.1200E+02
    -50.198  0.0000E+00  0.0000E+00  0.1200E+02  0.1200E+02
    -49.925  0.0000E+00  0.0000E+00  0.1200E+02  0.1200E+02
    -49.652  0.0000E+00  0.0000E+00  0.1200E+02  0.1200E+02
    -49.379  0.0000E+00  0.0000E+00  0.1200E+02  0.1200E+02
    -49.106  0.0000E+00  0.0000E+00  0.1200E+02  0.1200E+02
    -48.833  0.0000E+00  0.0000E+00  0.1200E+02  0.1200E+02
    -48.560  0.0000E+00  0.0000E+00  0.1200E+02  0.1200E+02
    -48.287  0.0000E+00  0.0000E+00  0.1200E+02  0.1200E+02
    -48.014  0.0000E+00  0.0000E+00  0.1200E+02  0.1200E+02
    -47.741  0.0000E+00  0.0000E+00  0.1200E+02  0.1200E+02
    -47.469  0.0000E+00  0.0000E+00  0.1200E+02  0.1200E+02
    -47.196  0.0000E+00  0.0000E+00  0.1200E+02  0.1200E+02
    -46.923  0.0000E+00  0.0000E+00  0.1200E+02  0.1200E+02
    -46.650  0.0000E+00  0.0000E+00  0.1200E+02  0.1200E+02
    -46.377  0.0000E+00  0.0000E+00  0.1200E+02  0.1200E+02
    -46.104  0.0000E+00  0.0000E+00  0.1200E+02  0.1200E+02
    -45.831  0.0000E+00  0.0000E+00  0.1200E+02  0.1200E+02
    -45.558  0.0000E+00  0.0000E+00  0.1200E+02  0.1200E+02
    -45.285  0.0000E+00  0.0000E+00  0.1200E+02  0.1200E+02
    -45.012  0.0000E+00  0.0000E+00  0.1200E+02  0.1200E+02
    -44.740  0.0000E+00  0.0000E+00  0.1200E+02  0.1200E+02
    -44.467  0.0000E+00  0.0000E+00  0.1200E+02  0.1200E+02
    -44.194  0.0000E+00  0.0000E+00  0.1200E+02  0.1200E+02
    -43.921  0.0000E+00  0.0000E+00  0.1200E+02  0.1200E+02
    -43.648  0.0000E+00  0.0000E+00  0.1200E+02  0.1200E+02
    -43.375  0.0000E+00  0.0000E+00  0.1200E+02  0.1200E+02
    -43.102  0.0000E+00  0.0000E+00  0.1200E+02  0.1200E+02
    -42.829  0.0000E+00  0.0000E+00  0.1200E+02  0.1200E+02
    -42.556  0.0000E+00  0.0000E+00  0.1200E+02  0.1200E+02
    -42.283  0.0000E+00  0.0000E+00  0.1200E+02  0.1200E+02
    -42.011  0.0000E+00  0.0000E+00  0.1200E+02  0.1200E+02
    -41.738  0.0000E+00  0.0000E+00  0.1200E+02  0.1200E+02
    -41.465  0.0000E+00  0.0000E+00  0.1200E+02  0.1200E+02
    -41.192  0.0000E+00  0.0000E+00  0.1200E+02  0.1200E+02
    -40.919  0.0000E+00  0.0000E+00  0.1200E+02  0.1200E+02
    -40.646  0.0000E+00  0.0000E+00  0.1200E+02  0.1200E+02
    -40.373  0.0000E+00  0.0000E+00  0.1200E+02  0.1200E+02
    -40.100  0.0000E+00  0.0000E+00  0.1200E+02  0.1200E+02
    -39.827  0.0000E+00  0.0000E+00  0.1200E+02  0.1200E+02
    -39.554  0.0000E+00  0.0000E+00  0.1200E+02  0.1200E+02
    -39.282  0.0000E+00  0.0000E+00  0.1200E+02  0.1200E+02
    -39.009  0.0000E+00  0.0000E+00  0.1200E+02  0.1200E+02
    -38.736  0.0000E+00  0.0000E+00  0.1200E+02  0.1200E+02
    -38.463  0.0000E+00  0.0000E+00  0.1200E+02  0.1200E+02
    -38.190  0.0000E+00  0.0000E+00  0.1200E+02  0.1200E+02
    -37.917  0.0000E+00  0.0000E+00  0.1200E+02  0.1200E+02
    -37.644  0.0000E+00  0.0000E+00  0.1200E+02  0.1200E+02
    -37.371  0.0000E+00  0.0000E+00  0.1200E+02  0.1200E+02
    -37.098  0.0000E+00  0.0000E+00  0.1200E+02  0.1200E+02
    -36.825  0.0000E+00  0.0000E+00  0.1200E+02  0.1200E+02
    -36.553  0.0000E+00  0.0000E+00  0.1200E+02  0.1200E+02
    -36.280  0.0000E+00  0.0000E+00  0.1200E+02  0.1200E+02
    -36.007  0.0000E+00  0.0000E+00  0.1200E+02  0.1200E+02
    -35.734  0.0000E+00  0.0000E+00  0.1200E+02  0.1200E+02
    -35.461  0.0000E+00  0.0000E+00  0.1200E+02  0.1200E+02
    -35.188  0.0000E+00  0.0000E+00  0.1200E+02  0.1200E+02
    -34.915  0.0000E+00  0.0000E+00  0.1200E+02  0.1200E+02
    -34.642  0.0000E+00  0.0000E+00  0.1200E+02  0.1200E+02
    -34.369  0.0000E+00  0.0000E+00  0.1200E+02  0.1200E+02
    -34.096  0.0000E+00  0.0000E+00  0.1200E+02  0.1200E+02
    -33.824  0.0000E+00  0.0000E+00  0.1200E+02  0.1200E+02
    -33.551  0.0000E+00  0.0000E+00  0.1200E+02  0.1200E+02
    -33.278  0.0000E+00  0.0000E+00  0.1200E+02  0.1200E+02
    -33.005  0.0000E+00  0.0000E+00  0.1200E+02  0.1200E+02
    -32.732  0.0000E+00  0.0000E+00  0.1200E+02  0.1200E+02
    -32.459  0.0000E+00  0.0000E+00  0.1200E+02  0.1200E+02
    -32.186  0.0000E+00  0.0000E+00  0.1200E+02  0.1200E+02
    -31.913  0.0000E+00  0.0000E+00  0.1200E+02  0.1200E+02
    -31.640  0.0000E+00  0.0000E+00  0.1200E+02  0.1200E+02
    -31.367  0.0000E+00  0.0000E+00  0.1200E+02  0.1200E+02
    -31.095  0.0000E+00  0.0000E+00  0.1200E+02  0.1200E+02
    -30.822  0.0000E+00  0.0000E+00  0.1200E+02  0.1200E+02
    -30.549  0.0000E+00  0.0000E+00  0.1200E+02  0.1200E+02
    -30.276  0.0000E+00  0.0000E+00  0.1200E+02  0.1200E+02
    -30.003  0.0000E+00  0.0000E+00  0.1200E+02  0.1200E+02
    -29.730  0.0000E+00  0.0000E+00  0.1200E+02  0.1200E+02
    -29.457  0.0000E+00  0.0000E+00  0.1200E+02  0.1200E+02
    -29.184  0.0000E+00  0.0000E+00  0.1200E+02  0.1200E+02
    -28.911  0.0000E+00  0.0000E+00  0.1200E+02  0.1200E+02
    -28.638  0.0000E+00  0.0000E+00  0.1200E+02  0.1200E+02
    -28.365  0.0000E+00  0.0000E+00  0.1200E+02  0.1200E+02
    -28.093  0.0000E+00  0.0000E+00  0.1200E+02  0.1200E+02
    -27.820  0.0000E+00  0.0000E+00  0.1200E+02  0.1200E+02
    -27.547  0.0000E+00  0.0000E+00  0.1200E+02  0.1200E+02
    -27.274  0.0000E+00  0.0000E+00  0.1200E+02  0.1200E+02
    -27.001  0.0000E+00  0.0000E+00  0.1200E+02  0.1200E+02
    -26.728  0.0000E+00  0.0000E+00  0.1200E+02  0.1200E+02
    -26.455  0.0000E+00  0.0000E+00  0.1200E+02  0.1200E+02
    -26.182  0.0000E+00  0.0000E+00  0.1200E+02  0.1200E+02
    -25.909  0.0000E+00  0.0000E+00  0.1200E+02  0.1200E+02
    -25.636  0.0000E+00  0.0000E+00  0.1200E+02  0.1200E+02
    -25.364  0.0000E+00  0.0000E+00  0.1200E+02  0.1200E+02
    -25.091  0.0000E+00  0.0000E+00  0.1200E+02  0.1200E+02
    -24.818  0.0000E+00  0.0000E+00  0.1200E+02  0.1200E+02
    -24.545  0.0000E+00  0.0000E+00  0.1200E+02  0.1200E+02
    -24.272  0.0000E+00  0.0000E+00  0.1200E+02  0.1200E+02
    -23.999  0.0000E+00  0.0000E+00  0.1200E+02  0.1200E+02
    -23.726  0.0000E+00  0.0000E+00  0.1200E+02  0.1200E+02
    -23.453  0.0000E+00  0.0000E+00  0.1200E+02  0.1200E+02
    -23.180  0.0000E+00  0.0000E+00  0.1200E+02  0.1200E+02
    -22.907  0.0000E+00  0.0000E+00  0.1200E+02  0.1200E+02
    -22.635  0.0000E+00  0.0000E+00  0.1200E+02  0.1200E+02
    -22.362  0.0000E+00  0.0000E+00  0.1200E+02  0.1200E+02
    -22.089  0.0000E+00  0.0000E+00  0.1200E+02  0.1200E+02
    -21.816  0.0000E+00  0.0000E+00  0.1200E+02  0.1200E+02
    -21.543  0.0000E+00  0.0000E+00  0.1200E+02  0.1200E+02
    -21.270  0.0000E+00  0.0000E+00  0.1200E+02  0.1200E+02
    -20.997  0.0000E+00  0.0000E+00  0.1200E+02  0.1200E+02
    -20.724  0.0000E+00  0.0000E+00  0.1200E+02  0.1200E+02
    -20.451  0.0000E+00  0.0000E+00  0.1200E+02  0.1200E+02
    -20.178  0.0000E+00  0.0000E+00  0.1200E+02  0.1200E+02
    -19.906  0.0000E+00  0.0000E+00  0.1200E+02  0.1200E+02
    -19.633  0.0000E+00  0.0000E+00  0.1200E+02  0.1200E+02
    -19.360  0.0000E+00  0.0000E+00  0.1200E+02  0.1200E+02
    -19.087  0.0000E+00  0.0000E+00  0.1200E+02  0.1200E+02
    -18.814  0.0000E+00  0.0000E+00  0.1200E+02  0.1200E+02
    -18.541  0.0000E+00  0.0000E+00  0.1200E+02  0.1200E+02
    -18.268  0.0000E+00  0.0000E+00  0.1200E+02  0.1200E+02
    -17.995  0.0000E+00  0.0000E+00  0.1200E+02  0.1200E+02
    -17.722  0.0000E+00  0.0000E+00  0.1200E+02  0.1200E+02
    -17.449  0.0000E+00  0.0000E+00  0.1200E+02  0.1200E+02
    -17.177  0.0000E+00  0.0000E+00  0.1200E+02  0.1200E+02
    -16.904  0.0000E+00  0.0000E+00  0.1200E+02  0.1200E+02
    -16.631  0.0000E+00  0.0000E+00  0.1200E+02  0.1200E+02
    -16.358  0.0000E+00  0.0000E+00  0.1200E+02  0.1200E+02
    -16.085  0.0000E+00  0.0000E+00  0.1200E+02  0.1200E+02
    -15.812  0.0000E+00  0.0000E+00  0.1200E+02  0.1200E+02
    -15.539  0.0000E+00  0.0000E+00  0.1200E+02  0.1200E+02
    -15.266  0.0000E+00  0.0000E+00  0.1200E+02  0.1200E+02
    -14.993  0.0000E+00  0.0000E+00  0.1200E+02  0.1200E+02
    -14.720  0.0000E+00  0.0000E+00  0.1200E+02  0.1200E+02
    -14.448  0.0000E+00  0.0000E+00  0.1200E+02  0.1200E+02
    -14.175  0.0000E+00  0.0000E+00  0.1200E+02  0.1200E+02
    -13.902  0.0000E+00  0.0000E+00  0.1200E+02  0.1200E+02
    -13.629  0.0000E+00  0.0000E+00  0.1200E+02  0.1200E+02
    -13.356  0.0000E+00  0.0000E+00  0.1200E+02  0.1200E+02
    -13.083  0.0000E+00  0.0000E+00  0.1200E+02  0.1200E+02
    -12.810  0.0000E+00  0.0000E+00  0.1200E+02  0.1200E+02
    -12.537  0.0000E+00  0.0000E+00  0.1200E+02  0.1200E+02
    -12.264  0.0000E+00  0.0000E+00  0.1200E+02  0.1200E+02
    -11.991  0.0000E+00  0.0000E+00  0.1200E+02  0.1200E+02
    -11.719  0.0000E+00  0.0000E+00  0.1200E+02  0.1200E+02
    -11.446  0.0000E+00  0.0000E+00  0.1200E+02  0.1200E+02
    -11.173  0.0000E+00  0.0000E+00  0.1200E+02  0.1200E+02
    -10.900  0.0000E+00  0.0000E+00  0.1200E+02  0.1200E+02
    -10.627  0.0000E+00  0.0000E+00  0.1200E+02  0.1200E+02
    -10.354  0.0000E+00  0.0000E+00  0.1200E+02  0.1200E+02
    -10.081  0.0000E+00  0.0000E+00  0.1200E+02  0.1200E+02
     -9.808  0.0000E+00  0.0000E+00  0.1200E+02  0.1200E+02
     -9.535  0.0000E+00  0.0000E+00  0.1200E+02  0.1200E+02
     -9.262  0.0000E+00  0.0000E+00  0.1200E+02  0.1200E+02
     -8.990  0.0000E+00  0.0000E+00  0.1200E+02  0.1200E+02
     -8.717  0.0000E+00  0.0000E+00  0.1200E+02  0.1200E+02
     -8.444  0.0000E+00  0.0000E+00  0.1200E+02  0.1200E+02
     -8.171  0.0000E+00  0.0000E+00  0.1200E+02  0.1200E+02
     -7.898  0.0000E+00  0.0000E+00  0.1200E+02  0.1200E+02
     -7.625  0.0000E+00  0.0000E+00  0.1200E+02  0.1200E+02
     -7.352  0.0000E+00  0.0000E+00  0.1200E+02  0.1200E+02
     -7.079  0.0000E+00  0.0000E+00  0.1200E+02  0.1200E+02
     -6.806  0.0000E+00  0.0000E+00  0.1200E+02  0.1200E+02
     -6.533  0.0000E+00  0.0000E+00  0.1200E+02  0.1200E+02
     -6.261  0.0000E+00  0.0000E+00  0.1200E+02  0.1200E+02
     -5.988  0.0000E+00  0.0000E+00  0.1200E+02  0.1200E+02
     -5.715  0.0000E+00  0.0000E+00  0.1200E+02  0.1200E+02
     -5.442  0.0000E+00  0.0000E+00  0.1200E+02  0.1200E+02
     -5.169  0.0000E+00  0.0000E+00  0.1200E+02  0.1200E+02
     -4.896  0.0000E+00  0.0000E+00  0.1200E+02  0.1200E+02
     -4.623  0.0000E+00  0.0000E+00  0.1200E+02  0.1200E+02
     -4.350  0.0000E+00  0.0000E+00  0.1200E+02  0.1200E+02
     -4.077  0.0000E+00  0.0000E+00  0.1200E+02  0.1200E+02
     -3.804  0.0000E+00  0.0000E+00  0.1200E+02  0.1200E+02
     -3.532  0.0000E+00  0.0000E+00  0.1200E+02  0.1200E+02
     -3.259  0.0000E+00  0.0000E+00  0.1200E+02  0.1200E+02
     -2.986  0.0000E+00  0.0000E+00  0.1200E+02  0.1200E+02
     -2.713  0.0000E+00  0.0000E+00  0.1200E+02  0.1200E+02
     -2.440  0.0000E+00  0.0000E+00  0.1200E+02  0.1200E+02
     -2.167  0.0000E+00  0.0000E+00  0.1200E+02  0.1200E+02
     -1.894  0.3593E-01  0.3593E-01  0.1200E+02  0.1200E+02
     -1.621  0.2101E+00  0.2101E+00  0.1204E+02  0.1204E+02
     -1.348  0.2530E+00  0.2530E+00  0.1210E+02  0.1210E+02
     -1.075  0.3669E+00  0.3669E+00  0.1218E+02  0.1218E+02
     -0.803  0.4428E+00  0.4428E+00  0.1230E+02  0.1230E+02
     -0.530  0.4978E+00  0.4978E+00  0.1242E+02  0.1242E+02
     -0.257  0.5218E+00  0.5218E+00  0.1256E+02  0.1256E+02
      0.016  0.4729E+00  0.4729E+00  0.1270E+02  0.1270E+02
      0.289  0.4521E+00  0.4521E+00  0.1283E+02  0.1283E+02
      0.562  0.5387E+00  0.5387E+00  0.1296E+02  0.1296E+02
      0.835  0.6589E+00  0.6589E+00  0.1312E+02  0.1312E+02
      1.108  0.8916E+00  0.8916E+00  0.1332E+02  0.1332E+02
      1.381  0.7339E+00  0.7339E+00  0.1361E+02  0.1361E+02
      1.654  0.4464E+00  0.4464E+00  0.1378E+02  0.1378E+02
      1.926  0.6460E+00  0.6460E+00  0.1392E+02  0.1392E+02
      2.199  0.1258E+01  0.1258E+01  0.1416E+02  0.1416E+02
      2.472  0.7755E+00  0.7755E+00  0.1443E+02  0.1443E+02
      2.745  0.8975E+00  0.8975E+00  0.1466E+02  0.1466E+02
      3.018  0.1045E+01  0.1045E+01  0.1491E+02  0.1491E+02
      3.291  0.1108E+01  0.1108E+01  0.1522E+02  0.1522E+02
      3.564  0.1443E+01  0.1443E+01  0.1555E+02  0.1555E+02
      3.837  0.1321E+01  0.1321E+01  0.1592E+02  0.1592E+02
      4.110  0.1308E+01  0.1308E+01  0.1627E+02  0.1627E+02
      4.383  0.1697E+01  0.1697E+01  0.1666E+02  0.1666E+02
      4.656  0.2057E+01  0.2057E+01  0.1721E+02  0.1721E+02
      4.928  0.1941E+01  0.1941E+01  0.1772E+02  0.1772E+02
      5.201  0.9546E+00  0.9546E+00  0.1807E+02  0.1807E+02
      5.474  0.3703E+01  0.3703E+01  0.1889E+02  0.1889E+02
      5.747  0.6268E+01  0.6268E+01  0.2017E+02  0.2017E+02
      6.020  0.5648E+01  0.5648E+01  0.2188E+02  0.2188E+02
      6.293  0.8114E+01  0.8114E+01  0.2361E+02  0.2361E+02
      6.566  0.1244E+02  0.1244E+02  0.2585E+02  0.2585E+02
      6.839  0.3933E+01  0.3933E+01  0.2791E+02  0.2791E+02
      7.112  0.1258E+02  0.1258E+02  0.3025E+02  0.3025E+02
      7.385  0.5230E+01  0.5230E+01  0.3236E+02  0.3236E+02
      7.657  0.7183E+01  0.7183E+01  0.3391E+02  0.3391E+02
      7.930  0.5577E+01  0.5577E+01  0.3579E+02  0.3579E+02
      8.203  0.3666E+01  0.3666E+01  0.3683E+02  0.3683E+02
      8.476  0.2166E+01  0.2166E+01  0.3758E+02  0.3758E+02
      8.749  0.6109E+00  0.6109E+00  0.3796E+02  0.3796E+02
      9.022  0.4422E+00  0.4422E+00  0.3807E+02  0.3807E+02
      9.295  0.8553E+00  0.8553E+00  0.3823E+02  0.3823E+02
      9.568  0.1497E+01  0.1497E+01  0.3851E+02  0.3851E+02
      9.841  0.1730E+01  0.1730E+01  0.3901E+02  0.3901E+02
     10.114  0.1643E+01  0.1643E+01  0.3948E+02  0.3948E+02
     10.386  0.9477E+00  0.9477E+00  0.3983E+02  0.3983E+02
     10.659  0.1442E+01  0.1442E+01  0.4016E+02  0.4016E+02
     10.932  0.1456E+01  0.1456E+01  0.4055E+02  0.4055E+02
     11.205  0.1692E+01  0.1692E+01  0.4098E+02  0.4098E+02
     11.478  0.1629E+01  0.1629E+01  0.4144E+02  0.4144E+02
     11.751  0.1236E+01  0.1236E+01  0.4187E+02  0.4187E+02
     12.024  0.1414E+01  0.1414E+01  0.4225E+02  0.4225E+02
     12.297  0.1201E+01  0.1201E+01  0.4262E+02  0.4262E+02
     12.570  0.1162E+01  0.1162E+01  0.4297E+02  0.4297E+02
     12.843  0.1065E+01  0.1065E+01  0.4327E+02  0.4327E+02
     13.115  0.1416E+01  0.1416E+01  0.4360E+02  0.4360E+02
     13.388  0.1361E+01  0.1361E+01  0.4400E+02  0.4400E+02
     13.661  0.1613E+01  0.1613E+01  0.4440E+02  0.4440E+02
     13.934  0.2117E+01  0.2117E+01  0.4493E+02  0.4493E+02
     14.207  0.1426E+01  0.1426E+01  0.4546E+02  0.4546E+02
     14.480  0.1470E+01  0.1470E+01  0.4585E+02  0.4585E+02
     14.753  0.1206E+01  0.1206E+01  0.4622E+02  0.4622E+02
     15.026  0.1187E+01  0.1187E+01  0.4652E+02  0.4652E+02
     15.299  0.1407E+01  0.1407E+01  0.4686E+02  0.4686E+02
     15.572  0.1841E+01  0.1841E+01  0.4732E+02  0.4732E+02
     15.844  0.1782E+01  0.1782E+01  0.4782E+02  0.4782E+02
     16.117  0.1426E+01  0.1426E+01  0.4824E+02  0.4824E+02
     16.390  0.1560E+01  0.1560E+01  0.4868E+02  0.4868E+02
     16.663  0.1665E+01  0.1665E+01  0.4912E+02  0.4912E+02
     16.936  0.2105E+01  0.2105E+01  0.4956E+02  0.4956E+02
     17.209  0.1502E+01  0.1502E+01  0.5013E+02  0.5013E+02
     17.482  0.1739E+01  0.1739E+01  0.5055E+02  0.5055E+02
     17.755  0.1559E+01  0.1559E+01  0.5106E+02  0.5106E+02
     18.028  0.1274E+01  0.1274E+01  0.5151E+02  0.5151E+02
     18.301  0.6449E+00  0.6449E+00  0.5175E+02  0.5175E+02
     18.573  0.3880E+00  0.3880E+00  0.5188E+02  0.5188E+02
     18.846  0.2061E+00  0.2061E+00  0.5196E+02  0.5196E+02
     19.119  0.5657E-01  0.5657E-01  0.5199E+02  0.5199E+02
     19.392  0.1055E-01  0.1055E-01  0.5200E+02  0.5200E+02
     19.665  0.0000E+00  0.0000E+00  0.5200E+02  0.5200E+02
     19.938  0.0000E+00  0.0000E+00  0.5200E+02  0.5200E+02
     20.211  0.0000E+00  0.0000E+00  0.5200E+02  0.5200E+02
     20.484  0.0000E+00  0.0000E+00  0.5200E+02  0.5200E+02
     20.757  0.0000E+00  0.0000E+00  0.5200E+02  0.5200E+02
     21.030  0.0000E+00  0.0000E+00  0.5200E+02  0.5200E+02
     21.302  0.0000E+00  0.0000E+00  0.5200E+02  0.5200E+02
     21.575  0.0000E+00  0.0000E+00  0.5200E+02  0.5200E+02
     21.848  0.0000E+00  0.0000E+00  0.5200E+02  0.5200E+02
     22.121  0.0000E+00  0.0000E+00  0.5200E+02  0.5200E+02
     22.394  0.0000E+00  0.0000E+00  0.5200E+02  0.5200E+02
     22.667  0.0000E+00  0.0000E+00  0.5200E+02  0.5200E+02
     22.940  0.0000E+00  0.0000E+00  0.5200E+02  0.5200E+02
     23.213  0.0000E+00  0.0000E+00  0.5200E+02  0.5200E+02
