       N       E                     dE             d eps       ncg     rms          rms(c)
DAV:   1    -0.425980496125E+02   -0.42598E+02   -0.41865E-01  5616   0.653E+00    0.201E-01
DAV:   2    -0.426027462583E+02   -0.46966E-02   -0.15013E-02  7232   0.187E+00    0.646E-01
DAV:   3    -0.425981997623E+02    0.45465E-02   -0.95104E-03  6816   0.158E+00    0.606E-02
DAV:   4    -0.425982827325E+02   -0.82970E-04   -0.55556E-04  7040   0.189E-01    0.585E-02
DAV:   5    -0.425983206783E+02   -0.37946E-04   -0.87964E-05  6640   0.995E-02    0.148E-02
DAV:   6    -0.425983453385E+02   -0.24660E-04   -0.10762E-05  6976   0.413E-02    0.570E-03
DAV:   7    -0.425983348239E+02    0.10515E-04   -0.12934E-06  6600   0.135E-02    0.103E-03
DAV:   8    -0.425983353937E+02   -0.56980E-06   -0.10559E-07  5736   0.254E-03    0.251E-04
DAV:   9    -0.425983348234E+02    0.57030E-06   -0.49939E-09  3088   0.620E-04    0.111E-04
DAV:  10    -0.425983349319E+02   -0.10856E-06   -0.15812E-09  2976   0.420E-04    0.314E-05
DAV:  11    -0.425983349196E+02    0.12364E-07   -0.44727E-10  2904   0.186E-04    0.164E-05
DAV:  12    -0.425983349309E+02   -0.11354E-07   -0.14846E-10  2880   0.108E-04    0.939E-06
DAV:  13    -0.425983349279E+02    0.30104E-08   -0.59100E-11  2880   0.650E-05
   1 F= -.42598335E+02 E0= -.42598335E+02  d E =0.000000E+00  mag=     0.0000
