 running on   24 total cores
 distrk:  each k-point on   24 cores,    1 groups
 distr:  one band on    6 cores,    4 groups
 using from now: INCAR     
 vasp.5.4.4.18Apr17-6-g9f103f2a35 (build Jan 03 2018 06:08:52) complex          
  
 POSCAR found :  2 types and       8 ions
 scaLAPACK will be used
 WARNING: for PREC=h ENMAX is automatically increase by 25 %
        this was not the case for versions prior to vasp.4.4
 WARNING: for PREC=h ENMAX is automatically increase by 25 %
        this was not the case for versions prior to vasp.4.4
 LDA part: xc-table for Pade appr. of Perdew
 POSCAR, INCAR and KPOINTS ok, starting setup
 FFT: planning ...
 WAVECAR not read
 entering main loop
       N       E                     dE             d eps       ncg     rms          rms(c)
DAV:   1     0.864131526919E+03    0.86413E+03   -0.43841E+04  6888   0.164E+03
DAV:   2     0.117548979130E+02   -0.85238E+03   -0.81432E+03  5720   0.522E+02
DAV:   3    -0.445438320876E+02   -0.56299E+02   -0.52577E+02  6508   0.152E+02
DAV:   4    -0.463967231486E+02   -0.18529E+01   -0.18405E+01  6428   0.257E+01
DAV:   5    -0.464429364489E+02   -0.46213E-01   -0.46196E-01  6464   0.425E+00    0.289E+01
DAV:   6    -0.622943551432E+02   -0.15851E+02   -0.13762E+02  6360   0.136E+02    0.389E+01
DAV:   7    -0.404099367900E+02    0.21884E+02   -0.52814E+01  6332   0.898E+01    0.580E+00
DAV:   8    -0.404062151518E+02    0.37216E-02   -0.49547E+00  7008   0.173E+01    0.361E+00
DAV:   9    -0.403950674876E+02    0.11148E-01   -0.61369E-01  7568   0.136E+01    0.390E+00
DAV:  10    -0.402961042500E+02    0.98963E-01   -0.48202E-01  6436   0.972E+00    0.850E-01
DAV:  11    -0.402883480042E+02    0.77562E-02   -0.40937E-02  6376   0.174E+00    0.248E-01
DAV:  12    -0.402884857254E+02   -0.13772E-03   -0.47325E-03  7636   0.591E-01    0.169E-01
DAV:  13    -0.402882340845E+02    0.25164E-03   -0.47200E-04  6780   0.190E-01    0.923E-02
DAV:  14    -0.402881523231E+02    0.81761E-04   -0.20537E-04  8024   0.122E-01    0.224E-02
DAV:  15    -0.402881580641E+02   -0.57411E-05   -0.32515E-05  7636   0.376E-02    0.165E-02
DAV:  16    -0.402881555585E+02    0.25056E-05   -0.57564E-06  6880   0.230E-02    0.709E-03
DAV:  17    -0.402881548045E+02    0.75399E-06   -0.89040E-07  7536   0.649E-03    0.281E-03
DAV:  18    -0.402881545467E+02    0.25788E-06   -0.16261E-07  6780   0.277E-03    0.934E-04
DAV:  19    -0.402881544543E+02    0.92394E-07   -0.43217E-08  5356   0.158E-03    0.244E-04
DAV:  20    -0.402881544529E+02    0.14061E-08   -0.73876E-09  3160   0.733E-04
   1 F= -.40288154E+02 E0= -.40286709E+02  d E =-.402882E+02  mag=     0.0000
 curvature:   0.00 expect dE= 0.000E+00 dE for cont linesearch  0.000E+00
 trial: gam= 0.00000 g(F)=  0.690E+00 g(S)=  0.406E+01 ort = 0.000E+00 (trialstep = 0.100E+01)
 search vector abs. value=  0.475E+01
 bond charge predicted
       N       E                     dE             d eps       ncg     rms          rms(c)
DAV:   1    -0.200114455763E+03   -0.15983E+03   -0.21281E+03  5704   0.584E+02    0.968E+01
DAV:   2    -0.948288298719E+02    0.10529E+03   -0.10157E+03  6416   0.253E+02    0.642E+01
DAV:   3    -0.666625004512E+02    0.28166E+02   -0.34384E+02  6224   0.176E+02    0.441E+01
DAV:   4    -0.448367380943E+02    0.21826E+02   -0.74752E+01  6504   0.824E+01    0.164E+01
DAV:   5    -0.423666472925E+02    0.24701E+01   -0.78535E+00  7436   0.337E+01    0.856E+00
DAV:   6    -0.416391249902E+02    0.72752E+00   -0.30004E+00  6832   0.234E+01    0.544E+00
DAV:   7    -0.411557246193E+02    0.48340E+00   -0.56685E-01  6532   0.879E+00    0.114E+00
DAV:   8    -0.411583619620E+02   -0.26373E-02   -0.16518E-01  6464   0.317E+00    0.131E+00
DAV:   9    -0.411446764278E+02    0.13686E-01   -0.57310E-02  6308   0.209E+00    0.240E-01
DAV:  10    -0.411446723337E+02    0.40941E-05   -0.47895E-03  6012   0.677E-01    0.115E-01
DAV:  11    -0.411448323375E+02   -0.16000E-03   -0.43863E-04  6928   0.282E-01    0.182E-01
DAV:  12    -0.411446177700E+02    0.21457E-03   -0.10353E-03  7164   0.464E-01    0.641E-02
DAV:  13    -0.411446006306E+02    0.17139E-04   -0.14749E-04  6124   0.142E-01    0.148E-02
DAV:  14    -0.411446004390E+02    0.19151E-06   -0.15671E-05  7760   0.415E-02    0.130E-02
DAV:  15    -0.411445994270E+02    0.10121E-05   -0.58736E-06  6424   0.238E-02    0.795E-04
DAV:  16    -0.411445994311E+02   -0.41018E-08   -0.27693E-07  5968   0.378E-03    0.203E-03
DAV:  17    -0.411445993229E+02    0.10822E-06   -0.81183E-08  5316   0.361E-03    0.708E-04
DAV:  18    -0.411445993074E+02    0.15483E-07   -0.28764E-08  4196   0.127E-03    0.326E-04
DAV:  19    -0.411445993112E+02   -0.37944E-08   -0.21278E-09  3024   0.550E-04
   2 F= -.41144599E+02 E0= -.41144917E+02  d E =-.856445E+00  mag=    -0.0000
 trial-energy change:   -0.856445  1 .order   -1.090298   -4.745046    2.564451
 step:   0.6032(harm=  0.6492)  dis= 0.05051  next Energy=   -41.667972 (dE=-0.138E+01)
 bond charge predicted
       N       E                     dE             d eps       ncg     rms          rms(c)
DAV:   1    -0.834823123905E+02   -0.42338E+02   -0.35435E+02  6152   0.208E+02    0.689E+01
DAV:   2    -0.140365572912E+03   -0.56883E+02   -0.72503E+02  5936   0.300E+02    0.651E+01
DAV:   3    -0.479336474467E+02    0.92432E+02   -0.25243E+02  6408   0.141E+02    0.183E+01
DAV:   4    -0.475191653690E+02    0.41448E+00   -0.34265E+00  5920   0.118E+01    0.173E+01
DAV:   5    -0.451672848944E+02    0.23519E+01   -0.10719E+00  6920   0.163E+01    0.132E+01
DAV:   6    -0.434732852995E+02    0.16940E+01   -0.15139E+00  6712   0.188E+01    0.901E+00
DAV:   7    -0.419078964313E+02    0.15654E+01   -0.70018E+00  7152   0.275E+01    0.649E+00
DAV:   8    -0.418273403171E+02    0.80556E-01   -0.65395E-01  6072   0.710E+00    0.460E+00
DAV:   9    -0.417020304048E+02    0.12531E+00   -0.15649E-01  6964   0.347E+00    0.272E+00
DAV:  10    -0.416588397188E+02    0.43191E-01   -0.24784E-02  6280   0.121E+00    0.194E+00
DAV:  11    -0.416277673647E+02    0.31072E-01   -0.11475E-01  6360   0.315E+00    0.740E-01
DAV:  12    -0.416247379254E+02    0.30294E-02   -0.26225E-02  6484   0.157E+00    0.557E-01
DAV:  13    -0.416232546504E+02    0.14833E-02   -0.18950E-03  7212   0.505E-01    0.315E-01
DAV:  14    -0.416225453616E+02    0.70929E-03   -0.17958E-03  6524   0.400E-01    0.844E-02
DAV:  15    -0.416224481613E+02    0.97200E-04   -0.25406E-04  6076   0.108E-01    0.267E-02
DAV:  16    -0.416224459463E+02    0.22151E-05   -0.26094E-05  7512   0.412E-02    0.148E-02
DAV:  17    -0.416224435439E+02    0.24023E-05   -0.93389E-06  6264   0.317E-02    0.316E-03
DAV:  18    -0.416224432392E+02    0.30474E-06   -0.67466E-07  6200   0.790E-03    0.254E-03
DAV:  19    -0.416224431045E+02    0.13475E-06   -0.18182E-07  5948   0.644E-03    0.620E-04
DAV:  20    -0.416224430700E+02    0.34457E-07   -0.22972E-08  3684   0.185E-03    0.387E-04
DAV:  21    -0.416224430599E+02    0.10115E-07   -0.68417E-09  2980   0.841E-04    0.565E-05
DAV:  22    -0.416224430592E+02    0.71122E-09   -0.94479E-10  2932   0.258E-04
   3 F= -.41622443E+02 E0= -.41622490E+02  d E =-.133429E+01  mag=     0.0000
 curvature:  -0.32 expect dE=-0.135E+00 dE for cont linesearch -0.118E-03
 trial: gam= 0.09794 g(F)=  0.269E+00 g(S)=  0.154E+00 ort =-0.418E-01 (trialstep = 0.921E+00)
 search vector abs. value=  0.460E+00
 bond charge predicted
       N       E                     dE             d eps       ncg     rms          rms(c)
DAV:   1    -0.412999572332E+02    0.32249E+00   -0.51767E+01  7600   0.180E+02    0.114E+01
DAV:   2    -0.449019755674E+02   -0.36020E+01   -0.35789E+01  6536   0.530E+01    0.154E+01
DAV:   3    -0.420260981761E+02    0.28759E+01   -0.91162E+00  6376   0.365E+01    0.328E+00
DAV:   4    -0.421430118073E+02   -0.11691E+00   -0.14432E+00  7584   0.166E+01    0.521E+00
DAV:   5    -0.419407176860E+02    0.20229E+00   -0.53184E-01  6688   0.114E+01    0.877E-01
DAV:   6    -0.419375050123E+02    0.32127E-02   -0.79997E-02  5992   0.189E+00    0.271E-01
DAV:   7    -0.419370768978E+02    0.42811E-03   -0.47623E-03  6744   0.680E-01    0.998E-02
DAV:   8    -0.419371213331E+02   -0.44435E-04   -0.46400E-04  6912   0.184E-01    0.444E-02
DAV:   9    -0.419371157162E+02    0.56169E-05   -0.10597E-04  6808   0.141E-01    0.167E-02
DAV:  10    -0.419371135760E+02    0.21402E-05   -0.12381E-05  6368   0.400E-02    0.594E-03
DAV:  11    -0.419371131324E+02    0.44360E-06   -0.16321E-06  6636   0.117E-02    0.138E-03
DAV:  12    -0.419371130567E+02    0.75705E-07   -0.12973E-07  5936   0.349E-03    0.382E-04
DAV:  13    -0.419371130426E+02    0.14099E-07   -0.65576E-09  3076   0.776E-04    0.148E-04
DAV:  14    -0.419371130436E+02   -0.98589E-09   -0.21889E-09  3020   0.454E-04
   4 F= -.41937113E+02 E0= -.41937066E+02  d E =-.314670E+00  mag=    -0.0000
 trial-energy change:   -0.314670  1 .order   -0.315073   -0.385572   -0.244574
 step:   2.5176(harm=  2.5176)  dis= 0.14446  next Energy=   -42.149633 (dE=-0.527E+00)
 bond charge predicted
       N       E                     dE             d eps       ncg     rms          rms(c)
DAV:   1    -0.417072876332E+02    0.22983E+00   -0.17492E+02  8824   0.310E+02    0.208E+01
DAV:   2    -0.512162119499E+02   -0.95089E+01   -0.10315E+02  6536   0.961E+01    0.254E+01
DAV:   3    -0.423049409253E+02    0.89113E+01   -0.25299E+01  6336   0.615E+01    0.401E+00
DAV:   4    -0.422793357711E+02    0.25605E-01   -0.19870E+00  7712   0.142E+01    0.462E+00
DAV:   5    -0.422001660153E+02    0.79170E-01   -0.86495E-01  6896   0.144E+01    0.340E+00
DAV:   6    -0.421188011359E+02    0.81365E-01   -0.35664E-01  6832   0.711E+00    0.515E-01
DAV:   7    -0.421173669470E+02    0.14342E-02   -0.27654E-02  6184   0.144E+00    0.242E-01
DAV:   8    -0.421169788857E+02    0.38806E-03   -0.33745E-03  7336   0.538E-01    0.112E-01
DAV:   9    -0.421169366039E+02    0.42282E-04   -0.34511E-04  6488   0.181E-01    0.151E-02
DAV:  10    -0.421169350133E+02    0.15906E-05   -0.28198E-05  7904   0.473E-02    0.132E-02
DAV:  11    -0.421169329199E+02    0.20934E-05   -0.55306E-06  5864   0.246E-02    0.118E-03
DAV:  12    -0.421169327011E+02    0.21877E-06   -0.21914E-07  6200   0.328E-03    0.432E-04
DAV:  13    -0.421169326636E+02    0.37540E-07   -0.85763E-09  3248   0.972E-04    0.166E-04
DAV:  14    -0.421169326518E+02    0.11836E-07   -0.23772E-09  3080   0.355E-04    0.384E-05
DAV:  15    -0.421169326516E+02    0.12551E-09   -0.67950E-10  3040   0.255E-04
   5 F= -.42116933E+02 E0= -.42116890E+02  d E =-.494490E+00  mag=     0.0000
 curvature:  -1.38 expect dE=-0.572E+00 dE for cont linesearch -0.504E-02
 trial: gam= 1.14278 g(F)=  0.163E+00 g(S)=  0.251E+00 ort =-0.410E-01 (trialstep = 0.620E+00)
 search vector abs. value=  0.921E+00
 bond charge predicted
       N       E                     dE             d eps       ncg     rms          rms(c)
DAV:   1    -0.384697506261E+02    0.36472E+01   -0.11833E+02  8736   0.275E+02    0.525E+00
DAV:   2    -0.428482190155E+02   -0.43785E+01   -0.44421E+01  5856   0.473E+01    0.905E+00
DAV:   3    -0.424622026586E+02    0.38602E+00   -0.41825E+00  6976   0.264E+01    0.417E+00
DAV:   4    -0.423630430992E+02    0.99160E-01   -0.61397E-01  6640   0.111E+01    0.216E+00
DAV:   5    -0.423226265072E+02    0.40417E-01   -0.10396E-01  6584   0.395E+00    0.893E-01
DAV:   6    -0.423139295402E+02    0.86970E-02   -0.26200E-02  7776   0.177E+00    0.298E-01
DAV:   7    -0.423137425426E+02    0.18700E-03   -0.81741E-03  6264   0.954E-01    0.189E-01
DAV:   8    -0.423135343225E+02    0.20822E-03   -0.90948E-04  6088   0.363E-01    0.317E-02
DAV:   9    -0.423135465301E+02   -0.12208E-04   -0.67956E-05  6360   0.742E-02    0.138E-02
DAV:  10    -0.423135469398E+02   -0.40974E-06   -0.11954E-05  6584   0.378E-02    0.744E-03
DAV:  11    -0.423135464294E+02    0.51039E-06   -0.28923E-06  6324   0.179E-02    0.256E-03
DAV:  12    -0.423135464267E+02    0.27521E-08   -0.22659E-07  6304   0.491E-03    0.217E-04
DAV:  13    -0.423135464400E+02   -0.13353E-07   -0.73381E-09  3180   0.823E-04    0.148E-04
DAV:  14    -0.423135464407E+02   -0.62755E-09   -0.22386E-09  3104   0.425E-04
   6 F= -.42313546E+02 E0= -.42313078E+02  d E =-.196614E+00  mag=     0.0000
 trial-energy change:   -0.196614  1 .order   -0.195256   -0.227158   -0.163353
 step:   1.7808(harm=  2.2068)  dis= 0.14385  next Energy=   -42.475445 (dE=-0.359E+00)
 bond charge predicted
       N       E                     dE             d eps       ncg     rms          rms(c)
DAV:   1    -0.284641718964E+02    0.13849E+02   -0.44542E+02  7520   0.461E+02    0.108E+01
DAV:   2    -0.492513145112E+02   -0.20787E+02   -0.18576E+02  6180   0.127E+02    0.308E+01
DAV:   3    -0.429485448191E+02    0.63028E+01   -0.26005E+01  6320   0.530E+01    0.665E+00
DAV:   4    -0.426662500831E+02    0.28229E+00   -0.20400E+00  7020   0.136E+01    0.298E+00
DAV:   5    -0.425800117448E+02    0.86238E-01   -0.28478E-01  6724   0.661E+00    0.251E+00
DAV:   6    -0.425098430955E+02    0.70169E-01   -0.18714E-01  6924   0.460E+00    0.328E-01
DAV:   7    -0.425107926591E+02   -0.94956E-03   -0.17983E-02  6324   0.102E+00    0.170E-01
DAV:   8    -0.425108707905E+02   -0.78131E-04   -0.18386E-03  7228   0.512E-01    0.105E-01
DAV:   9    -0.425108199949E+02    0.50796E-04   -0.28256E-04  6624   0.225E-01    0.151E-02
DAV:  10    -0.425108217974E+02   -0.18025E-05   -0.21907E-05  6460   0.299E-02    0.450E-03
DAV:  11    -0.425108217516E+02    0.45799E-07   -0.14233E-06  6968   0.990E-03    0.192E-03
DAV:  12    -0.425108217224E+02    0.29200E-07   -0.17860E-07  7412   0.437E-03    0.686E-04
DAV:  13    -0.425108217338E+02   -0.11378E-07   -0.20212E-08  4388   0.131E-03    0.391E-04
DAV:  14    -0.425108217410E+02   -0.72268E-08   -0.46060E-09  3168   0.684E-04
   7 F= -.42510822E+02 E0= -.42510559E+02  d E =-.393889E+00  mag=    -0.0000
 curvature:  -2.57 expect dE=-0.211E+00 dE for cont linesearch -0.783E-02
 ZBRENT: extrapolating
 opt :   2.0726  next Energy=   -42.518544 (dE=-0.402E+00)
 bond charge predicted
       N       E                     dE             d eps       ncg     rms          rms(c)
DAV:   1    -0.415986031867E+02    0.91222E+00   -0.24437E+01  8328   0.132E+02    0.267E+00
DAV:   2    -0.426068625002E+02   -0.10083E+01   -0.10293E+01  6024   0.201E+01    0.351E+00
DAV:   3    -0.425533871165E+02    0.53475E-01   -0.86247E-01  7408   0.119E+01    0.209E+00
DAV:   4    -0.425284373690E+02    0.24950E-01   -0.15020E-01  6464   0.582E+00    0.100E+00
DAV:   5    -0.425198947720E+02    0.85426E-02   -0.19093E-02  6752   0.188E+00    0.450E-01
DAV:   6    -0.425175704545E+02    0.23243E-02   -0.58995E-03  7260   0.889E-01    0.111E-01
DAV:   7    -0.425175900463E+02   -0.19592E-04   -0.16991E-03  6216   0.383E-01    0.590E-02
DAV:   8    -0.425175733802E+02    0.16666E-04   -0.15698E-04  6092   0.137E-01    0.182E-02
DAV:   9    -0.425175739150E+02   -0.53477E-06   -0.12733E-05  6164   0.383E-02    0.447E-03
DAV:  10    -0.425175739760E+02   -0.60960E-07   -0.98404E-07  7836   0.114E-02    0.898E-04
DAV:  11    -0.425175739941E+02   -0.18143E-07   -0.72189E-08  6096   0.260E-03    0.243E-04
DAV:  12    -0.425175740127E+02   -0.18625E-07   -0.37564E-09  3096   0.614E-04    0.103E-04
DAV:  13    -0.425175740167E+02   -0.39799E-08   -0.79323E-10  3056   0.251E-04
   8 F= -.42517574E+02 E0= -.42517651E+02  d E =-.400641E+00  mag=     0.0000
 curvature:  -2.54 expect dE=-0.174E+00 dE for cont linesearch -0.250E-03
 trial: gam= 0.00762 g(F)=  0.161E-01 g(S)=  0.526E-01 ort =-0.952E-02 (trialstep = 0.910E+00)
 search vector abs. value=  0.686E-01
 bond charge predicted
       N       E                     dE             d eps       ncg     rms          rms(c)
DAV:   1    -0.441418672629E+02   -0.16243E+01   -0.17254E+01  6248   0.604E+01    0.136E+01
DAV:   2    -0.469220250831E+02   -0.27802E+01   -0.28588E+01  6248   0.606E+01    0.182E+01
DAV:   3    -0.425709011364E+02    0.43511E+01   -0.12209E+01  6288   0.406E+01    0.190E+00
DAV:   4    -0.426199444911E+02   -0.49043E-01   -0.67427E-01  7624   0.945E+00    0.309E+00
DAV:   5    -0.425557775891E+02    0.64167E-01   -0.21589E-01  7240   0.715E+00    0.117E+00
DAV:   6    -0.425439978172E+02    0.11780E-01   -0.43702E-02  6488   0.227E+00    0.123E-01
DAV:   7    -0.425440657359E+02   -0.67919E-04   -0.20458E-03  5960   0.355E-01    0.519E-02
DAV:   8    -0.425440648567E+02    0.87921E-06   -0.99484E-05  7644   0.761E-02    0.133E-02
DAV:   9    -0.425440619247E+02    0.29320E-05   -0.10628E-05  6380   0.368E-02    0.713E-03
DAV:  10    -0.425440607147E+02    0.12100E-05   -0.24532E-06  6644   0.144E-02    0.179E-03
DAV:  11    -0.425440606820E+02    0.32742E-07   -0.16466E-07  6692   0.413E-03    0.406E-04
DAV:  12    -0.425440606411E+02    0.40884E-07   -0.13525E-08  3488   0.113E-03    0.111E-04
DAV:  13    -0.425440606401E+02    0.10059E-08   -0.19555E-09  3128   0.454E-04
   9 F= -.42544061E+02 E0= -.42544059E+02  d E =-.264866E-01  mag=    -0.0000
 trial-energy change:   -0.026487  1 .order   -0.026249   -0.062483    0.009985
 step:   0.7870(harm=  0.7850)  dis= 0.00927  next Energy=   -42.544736 (dE=-0.272E-01)
 bond charge predicted
       N       E                     dE             d eps       ncg     rms          rms(c)
DAV:   1    -0.425744408861E+02   -0.30380E-01   -0.32301E-01  6184   0.830E+00    0.184E+00
DAV:   2    -0.426310055483E+02   -0.56565E-01   -0.57380E-01  6360   0.827E+00    0.274E+00
DAV:   3    -0.425455741348E+02    0.85431E-01   -0.24080E-01  6272   0.546E+00    0.323E-01
DAV:   4    -0.425465012642E+02   -0.92713E-03   -0.12379E-02  8080   0.142E+00    0.469E-01
DAV:   5    -0.425447676774E+02    0.17336E-02   -0.51490E-03  6872   0.110E+00    0.687E-02
DAV:   6    -0.425447637847E+02    0.38926E-05   -0.47746E-04  6088   0.176E-01    0.168E-02
DAV:   7    -0.425447623838E+02    0.14009E-05   -0.20293E-05  6520   0.401E-02    0.972E-03
DAV:   8    -0.425447627942E+02   -0.41037E-06   -0.25324E-06  6360   0.148E-02    0.130E-03
DAV:   9    -0.425447630492E+02   -0.25503E-06   -0.22663E-07  6304   0.416E-03    0.115E-03
DAV:  10    -0.425447631692E+02   -0.12000E-06   -0.79919E-08  5488   0.320E-03    0.467E-04
DAV:  11    -0.425447631508E+02    0.18432E-07   -0.10073E-08  3040   0.133E-03    0.149E-04
DAV:  12    -0.425447631773E+02   -0.26492E-07   -0.11813E-09  2996   0.304E-04    0.608E-05
DAV:  13    -0.425447631771E+02    0.15461E-09   -0.24730E-10  2960   0.117E-04
  10 F= -.42544763E+02 E0= -.42544773E+02  d E =-.271892E-01  mag=     0.0000
 curvature:  -0.39 expect dE=-0.429E-02 dE for cont linesearch -0.164E-07
 trial: gam= 0.15788 g(F)=  0.458E-02 g(S)=  0.636E-02 ort =-0.536E-04 (trialstep = 0.886E+00)
 search vector abs. value=  0.126E-01
 bond charge predicted
       N       E                     dE             d eps       ncg     rms          rms(c)
DAV:   1    -0.426810653378E+02   -0.13630E+00   -0.15090E+00  6656   0.161E+01    0.379E+00
DAV:   2    -0.429079532787E+02   -0.22689E+00   -0.24196E+00  6352   0.168E+01    0.560E+00
DAV:   3    -0.425554080827E+02    0.35255E+00   -0.10178E+00  6272   0.113E+01    0.916E-01
DAV:   4    -0.425574866767E+02   -0.20786E-02   -0.73062E-02  7320   0.360E+00    0.931E-01
DAV:   5    -0.425497596808E+02    0.77270E-02   -0.16670E-02  7272   0.190E+00    0.117E-01
DAV:   6    -0.425497839847E+02   -0.24304E-04   -0.16674E-03  6024   0.296E-01    0.396E-02
DAV:   7    -0.425497775564E+02    0.64283E-05   -0.78762E-05  6608   0.112E-01    0.212E-02
DAV:   8    -0.425497781483E+02   -0.59194E-06   -0.12006E-05  6608   0.364E-02    0.612E-03
DAV:   9    -0.425497782849E+02   -0.13654E-06   -0.11788E-06  6088   0.137E-02    0.193E-03
DAV:  10    -0.425497785190E+02   -0.23415E-06   -0.21690E-07  6720   0.396E-03    0.519E-04
DAV:  11    -0.425497785296E+02   -0.10590E-07   -0.17185E-08  3640   0.155E-03    0.140E-04
DAV:  12    -0.425497785440E+02   -0.14377E-07   -0.23225E-09  3040   0.349E-04    0.510E-05
DAV:  13    -0.425497785488E+02   -0.48658E-08   -0.59090E-10  3016   0.200E-04
  11 F= -.42549779E+02 E0= -.42549755E+02  d E =-.501537E-02  mag=    -0.0000
 trial-energy change:   -0.005015  1 .order   -0.005058   -0.009680   -0.000436
 step:   0.9288(harm=  0.9275)  dis= 0.00860  next Energy=   -42.549789 (dE=-0.503E-02)
 bond charge predicted
       N       E                     dE             d eps       ncg     rms          rms(c)
DAV:   1    -0.425501018288E+02   -0.32328E-03   -0.35445E-03  6664   0.783E-01    0.187E-01
DAV:   2    -0.425506935448E+02   -0.59172E-03   -0.58519E-03  6328   0.829E-01    0.283E-01
DAV:   3    -0.425498072760E+02    0.88627E-03   -0.26064E-03  6272   0.579E-01    0.535E-02
DAV:   4    -0.425498036904E+02    0.35856E-05   -0.19926E-04  6880   0.189E-01    0.386E-02
DAV:   5    -0.425497897077E+02    0.13983E-04   -0.31080E-05  7464   0.741E-02    0.629E-03
DAV:   6    -0.425497895925E+02    0.11523E-06   -0.29664E-06  6232   0.140E-02    0.172E-03
DAV:   7    -0.425497896618E+02   -0.69296E-07   -0.11899E-07  6728   0.377E-03    0.760E-04
DAV:   8    -0.425497897366E+02   -0.74764E-07   -0.18766E-08  3864   0.120E-03    0.268E-04
DAV:   9    -0.425497897503E+02   -0.13757E-07   -0.34898E-09  3024   0.653E-04    0.780E-05
DAV:  10    -0.425497897588E+02   -0.84856E-08   -0.76057E-10  2936   0.232E-04
  12 F= -.42549790E+02 E0= -.42549764E+02  d E =-.502658E-02  mag=    -0.0000
 curvature:  -0.54 expect dE=-0.654E-03 dE for cont linesearch -0.101E-09
 trial: gam= 0.11686 g(F)=  0.737E-03 g(S)=  0.485E-03 ort = 0.155E-05 (trialstep = 0.894E+00)
 search vector abs. value=  0.139E-02
 bond charge predicted
       N       E                     dE             d eps       ncg     rms          rms(c)
DAV:   1    -0.425486082597E+02    0.11815E-02   -0.10225E-01  6632   0.824E+00    0.499E-01
DAV:   2    -0.425561023655E+02   -0.74941E-02   -0.76438E-02  6712   0.249E+00    0.713E-01
DAV:   3    -0.425513551712E+02    0.47472E-02   -0.20281E-02  6808   0.190E+00    0.306E-01
DAV:   4    -0.425509106198E+02    0.44455E-03   -0.42644E-03  6336   0.933E-01    0.144E-01
DAV:   5    -0.425506904973E+02    0.22012E-03   -0.41856E-04  6504   0.272E-01    0.372E-02
DAV:   6    -0.425506751957E+02    0.15302E-04   -0.79719E-05  6648   0.611E-02    0.905E-03
DAV:   7    -0.425506749381E+02    0.25755E-06   -0.12636E-05  6224   0.379E-02    0.765E-03
DAV:   8    -0.425506744516E+02    0.48650E-06   -0.17634E-06  6400   0.144E-02    0.102E-03
DAV:   9    -0.425506744020E+02    0.49664E-07   -0.82802E-08  5904   0.223E-03    0.479E-04
DAV:  10    -0.425506743907E+02    0.11321E-07   -0.83360E-09  3104   0.913E-04    0.721E-05
DAV:  11    -0.425506743886E+02    0.20627E-08   -0.18481E-09  2984   0.419E-04
  13 F= -.42550674E+02 E0= -.42550625E+02  d E =-.884630E-03  mag=     0.0000
 trial-energy change:   -0.000885  1 .order   -0.000876   -0.001093   -0.000660
 step:   1.9787(harm=  2.2553)  dis= 0.00689  next Energy=   -42.551089 (dE=-0.130E-02)
 bond charge predicted
       N       E                     dE             d eps       ncg     rms          rms(c)
DAV:   1    -0.425481438931E+02    0.25305E-02   -0.15040E-01  6632   0.999E+00    0.605E-01
DAV:   2    -0.425591345071E+02   -0.10991E-01   -0.11230E-01  6696   0.302E+00    0.864E-01
DAV:   3    -0.425521672154E+02    0.69673E-02   -0.29736E-02  6824   0.230E+00    0.371E-01
DAV:   4    -0.425515159649E+02    0.65125E-03   -0.62389E-03  6336   0.113E+00    0.175E-01
DAV:   5    -0.425511918870E+02    0.32408E-03   -0.61216E-04  6504   0.329E-01    0.451E-02
DAV:   6    -0.425511697465E+02    0.22140E-04   -0.11710E-04  6640   0.739E-02    0.110E-02
DAV:   7    -0.425511694496E+02    0.29691E-06   -0.18585E-05  6224   0.459E-02    0.928E-03
DAV:   8    -0.425511687673E+02    0.68235E-06   -0.25892E-06  6448   0.175E-02    0.124E-03
DAV:   9    -0.425511687064E+02    0.60856E-07   -0.12235E-07  6264   0.271E-03    0.590E-04
DAV:  10    -0.425511686916E+02    0.14777E-07   -0.12102E-08  3144   0.109E-03    0.914E-05
DAV:  11    -0.425511686917E+02   -0.27285E-10   -0.25643E-09  3024   0.492E-04
  14 F= -.42551169E+02 E0= -.42551090E+02  d E =-.137893E-02  mag=     0.0000
 curvature:  -1.23 expect dE=-0.441E-03 dE for cont linesearch -0.196E-04
 ZBRENT: extrapolating
 opt :   2.2532  next Energy=   -42.551189 (dE=-0.140E-02)
 bond charge predicted
       N       E                     dE             d eps       ncg     rms          rms(c)
DAV:   1    -0.425509963152E+02    0.17238E-03   -0.96298E-03  6640   0.253E+00    0.154E-01
DAV:   2    -0.425517237723E+02   -0.72746E-03   -0.73064E-03  6680   0.776E-01    0.224E-01
DAV:   3    -0.425512595708E+02    0.46420E-03   -0.20031E-03  6808   0.599E-01    0.976E-02
DAV:   4    -0.425512129216E+02    0.46649E-04   -0.42335E-04  6336   0.295E-01    0.439E-02
DAV:   5    -0.425511924204E+02    0.20501E-04   -0.40481E-05  6456   0.839E-02    0.116E-02
DAV:   6    -0.425511906795E+02    0.17409E-05   -0.74753E-06  6696   0.190E-02    0.273E-03
DAV:   7    -0.425511905759E+02    0.10364E-06   -0.11928E-06  6160   0.116E-02    0.240E-03
DAV:   8    -0.425511905010E+02    0.74915E-07   -0.17468E-07  6224   0.455E-03    0.322E-04
DAV:   9    -0.425511904843E+02    0.16693E-07   -0.65755E-09  3040   0.694E-04    0.126E-04
DAV:  10    -0.425511904810E+02    0.32669E-08   -0.14285E-09  2928   0.306E-04
  15 F= -.42551190E+02 E0= -.42551105E+02  d E =-.140072E-02  mag=     0.0000
 curvature:  -1.28 expect dE=-0.572E-03 dE for cont linesearch -0.284E-09
 trial: gam= 0.36932 g(F)=  0.341E-03 g(S)=  0.105E-03 ort =-0.555E-06 (trialstep = 0.117E+01)
 search vector abs. value=  0.635E-03
 bond charge predicted
       N       E                     dE             d eps       ncg     rms          rms(c)
DAV:   1    -0.425378804493E+02    0.13310E-01   -0.38294E-01  8944   0.169E+01    0.486E-01
DAV:   2    -0.425559464652E+02   -0.18066E-01   -0.18141E-01  6640   0.291E+00    0.646E-01
DAV:   3    -0.425517628905E+02    0.41836E-02   -0.19776E-02  6592   0.156E+00    0.160E-01
DAV:   4    -0.425517175947E+02    0.45296E-04   -0.12640E-03  7136   0.478E-01    0.132E-01
DAV:   5    -0.425516226990E+02    0.94896E-04   -0.19381E-04  6448   0.221E-01    0.769E-02
DAV:   6    -0.425515685921E+02    0.54107E-04   -0.16846E-04  6728   0.173E-01    0.210E-02
DAV:   7    -0.425515665533E+02    0.20388E-05   -0.30986E-05  6688   0.578E-02    0.319E-03
DAV:   8    -0.425515663245E+02    0.22874E-06   -0.21835E-06  6304   0.169E-02    0.268E-03
DAV:   9    -0.425515663660E+02   -0.41418E-07   -0.30274E-07  6400   0.567E-03    0.936E-04
DAV:  10    -0.425515664069E+02   -0.40980E-07   -0.20199E-08  3184   0.190E-03    0.317E-04
DAV:  11    -0.425515664229E+02   -0.15978E-07   -0.81032E-09  3024   0.114E-03    0.166E-04
DAV:  12    -0.425515664196E+02    0.33451E-08   -0.25544E-09  2992   0.546E-04
  16 F= -.42551566E+02 E0= -.42551443E+02  d E =-.375939E-03  mag=    -0.0000
 trial-energy change:   -0.000376  1 .order   -0.000376   -0.000519   -0.000232
 step:   2.1107(harm=  2.1107)  dis= 0.00538  next Energy=   -42.551660 (dE=-0.470E-03)
 bond charge predicted
       N       E                     dE             d eps       ncg     rms          rms(c)
DAV:   1    -0.425427466189E+02    0.88198E-02   -0.25180E-01  8912   0.137E+01    0.396E-01
DAV:   2    -0.425546015797E+02   -0.11855E-01   -0.11895E-01  6624   0.236E+00    0.529E-01
DAV:   3    -0.425517866982E+02    0.28149E-02   -0.13063E-02  6576   0.127E+00    0.127E-01
DAV:   4    -0.425517603124E+02    0.26386E-04   -0.81046E-04  7216   0.379E-01    0.106E-01
DAV:   5    -0.425516987785E+02    0.61534E-04   -0.12939E-04  6432   0.182E-01    0.618E-02
DAV:   6    -0.425516640528E+02    0.34726E-04   -0.10722E-04  6792   0.139E-01    0.165E-02
DAV:   7    -0.425516629326E+02    0.11202E-05   -0.19815E-05  6704   0.458E-02    0.255E-03
DAV:   8    -0.425516627499E+02    0.18267E-06   -0.13963E-06  6224   0.140E-02    0.214E-03
DAV:   9    -0.425516627852E+02   -0.35283E-07   -0.19902E-07  6360   0.457E-03    0.755E-04
DAV:  10    -0.425516628193E+02   -0.34099E-07   -0.13312E-08  3136   0.157E-03    0.248E-04
DAV:  11    -0.425516628333E+02   -0.14024E-07   -0.53921E-09  2984   0.909E-04    0.140E-04
DAV:  12    -0.425516628307E+02    0.26284E-08   -0.17120E-09  2952   0.454E-04
  17 F= -.42551663E+02 E0= -.42551513E+02  d E =-.472350E-03  mag=    -0.0000
 curvature:  -1.51 expect dE=-0.349E-03 dE for cont linesearch -0.507E-07
 trial: gam= 0.52427 g(F)=  0.785E-05 g(S)=  0.224E-03 ort = 0.462E-05 (trialstep = 0.136E+01)
 search vector abs. value=  0.411E-03
 bond charge predicted
       N       E                     dE             d eps       ncg     rms          rms(c)
DAV:   1    -0.425545067092E+02   -0.28439E-02   -0.27767E-01  6336   0.130E+01    0.118E+00
DAV:   2    -0.425848958417E+02   -0.30389E-01   -0.29668E-01  6368   0.547E+00    0.170E+00
DAV:   3    -0.425527474356E+02    0.32148E-01   -0.10183E-01  6280   0.366E+00    0.388E-01
DAV:   4    -0.425523465563E+02    0.40088E-03   -0.79346E-03  7336   0.120E+00    0.255E-01
DAV:   5    -0.425517414044E+02    0.60515E-03   -0.12137E-03  6704   0.464E-01    0.695E-02
DAV:   6    -0.425516943591E+02    0.47045E-04   -0.22635E-04  6456   0.115E-01    0.152E-02
DAV:   7    -0.425516919455E+02    0.24137E-05   -0.33863E-05  6344   0.587E-02    0.126E-02
DAV:   8    -0.425516908981E+02    0.10474E-05   -0.71614E-06  6336   0.290E-02    0.443E-03
DAV:   9    -0.425516905289E+02    0.36917E-06   -0.71267E-07  6048   0.104E-02    0.985E-04
DAV:  10    -0.425516904805E+02    0.48420E-07   -0.97573E-08  5728   0.310E-03    0.398E-04
DAV:  11    -0.425516904548E+02    0.25666E-07   -0.71657E-09  3032   0.893E-04    0.947E-05
DAV:  12    -0.425516904511E+02    0.37471E-08   -0.14909E-09  2976   0.243E-04
  18 F= -.42551690E+02 E0= -.42551507E+02  d E =-.276203E-04  mag=     0.0000
 trial-energy change:   -0.000028  1 .order   -0.000026   -0.000317    0.000265
 step:   0.7435(harm=  0.7381)  dis= 0.00115  next Energy=   -42.551750 (dE=-0.873E-04)
 bond charge predicted
       N       E                     dE             d eps       ncg     rms          rms(c)
DAV:   1    -0.425523446388E+02   -0.65418E-03   -0.56880E-02  6376   0.585E+00    0.537E-01
DAV:   2    -0.425587575821E+02   -0.64129E-02   -0.62469E-02  6416   0.251E+00    0.785E-01
DAV:   3    -0.425519828615E+02    0.67747E-02   -0.21904E-02  6288   0.173E+00    0.197E-01
DAV:   4    -0.425518788400E+02    0.10402E-03   -0.21875E-03  7008   0.637E-01    0.115E-01
DAV:   5    -0.425517584251E+02    0.12041E-03   -0.25100E-04  6832   0.211E-01    0.328E-02
DAV:   6    -0.425517501250E+02    0.83001E-05   -0.45605E-05  6640   0.525E-02    0.733E-03
DAV:   7    -0.425517500122E+02    0.11275E-06   -0.65997E-06  6376   0.275E-02    0.524E-03
DAV:   8    -0.425517500360E+02   -0.23809E-07   -0.11285E-06  6376   0.121E-02    0.160E-03
DAV:   9    -0.425517501013E+02   -0.65298E-07   -0.82342E-08  5944   0.350E-03    0.547E-04
DAV:  10    -0.425517501244E+02   -0.23072E-07   -0.19016E-08  3408   0.136E-03    0.178E-04
DAV:  11    -0.425517501333E+02   -0.88530E-08   -0.27812E-09  2984   0.542E-04
  19 F= -.42551750E+02 E0= -.42551580E+02  d E =-.873025E-04  mag=     0.0000
 curvature:  -0.65 expect dE=-0.838E-05 dE for cont linesearch -0.144E-07
 trial: gam= 0.08770 g(F)=  0.366E-06 g(S)=  0.126E-04 ort =-0.302E-05 (trialstep = 0.123E+01)
 search vector abs. value=  0.156E-04
 bond charge predicted
       N       E                     dE             d eps       ncg     rms          rms(c)
DAV:   1    -0.425520129476E+02   -0.26282E-03   -0.48462E-03  6808   0.816E-01    0.162E-01
DAV:   2    -0.425523076283E+02   -0.29468E-03   -0.36938E-03  6312   0.672E-01    0.218E-01
DAV:   3    -0.425517823417E+02    0.52529E-03   -0.15114E-03  6320   0.434E-01    0.428E-02
DAV:   4    -0.425517673800E+02    0.14962E-04   -0.10274E-04  7776   0.109E-01    0.371E-02
DAV:   5    -0.425517582737E+02    0.91062E-05   -0.40442E-05  6792   0.995E-02    0.741E-03
DAV:   6    -0.425517580130E+02    0.26076E-06   -0.37709E-06  6224   0.196E-02    0.181E-03
DAV:   7    -0.425517580829E+02   -0.69958E-07   -0.23254E-07  6448   0.432E-03    0.626E-04
DAV:   8    -0.425517581196E+02   -0.36702E-07   -0.15678E-08  3624   0.125E-03    0.161E-04
DAV:   9    -0.425517581455E+02   -0.25882E-07   -0.27090E-09  2992   0.459E-04    0.998E-05
DAV:  10    -0.425517581498E+02   -0.42892E-08   -0.69542E-10  2912   0.289E-04
  20 F= -.42551758E+02 E0= -.42551580E+02  d E =-.801655E-05  mag=     0.0000
 trial-energy change:   -0.000008  1 .order   -0.000008   -0.000016   -0.000000
 step:   1.2404(harm=  1.2409)  dis= 0.00009  next Energy=   -42.551758 (dE=-0.802E-05)
 bond charge predicted
       N       E                     dE             d eps       ncg     rms          rms(c)
DAV:   1    -0.425517581680E+02   -0.22508E-07   -0.18993E-07  6480   0.512E-03    0.101E-03
DAV:   2    -0.425517581533E+02    0.14697E-07   -0.14484E-07  6256   0.422E-03    0.137E-03
DAV:   3    -0.425517581532E+02    0.81855E-10   -0.58912E-08  4520   0.273E-03
  21 F= -.42551758E+02 E0= -.42551580E+02  d E =-.801999E-05  mag=     0.0000
 curvature:  -0.76 expect dE=-0.179E-06 dE for cont linesearch -0.374E-07
 trial: gam=-0.07857 g(F)=  0.720E-07 g(S)=  0.163E-06 ort = 0.875E-06 (trialstep = 0.123E+01)
 search vector abs. value=  0.194E-06
 reached required accuracy - stopping structural energy minimisation
 writing wavefunctions
