       N       E                     dE             d eps       ncg     rms          rms(c)
DAV:   1     0.348438652405E+03    0.34844E+03   -0.22669E+04  5960   0.150E+03
DAV:   2    -0.979582677954E+01   -0.35823E+03   -0.34490E+03  4996   0.450E+02
DAV:   3    -0.233427541230E+02   -0.13547E+02   -0.13165E+02  5732   0.104E+02
DAV:   4    -0.236155438459E+02   -0.27279E+00   -0.27215E+00  5636   0.141E+01
DAV:   5    -0.236237924834E+02   -0.82486E-02   -0.82482E-02  5852   0.266E+00    0.241E+01
DAV:   6    -0.450977024896E+02   -0.21474E+02   -0.16767E+02  6304   0.165E+02    0.364E+01
DAV:   7    -0.196601371065E+02    0.25438E+02   -0.70326E+01  6044   0.942E+01    0.118E+01
DAV:   8    -0.189122354288E+02    0.74790E+00   -0.18213E+01  6312   0.351E+01    0.763E+00
DAV:   9    -0.184434508357E+02    0.46878E+00   -0.18066E+00  6752   0.121E+01    0.158E+00
DAV:  10    -0.184578491128E+02   -0.14398E-01   -0.18666E-01  6924   0.429E+00    0.106E+00
DAV:  11    -0.184624643332E+02   -0.46152E-02   -0.11806E-02  5704   0.979E-01    0.720E-01
DAV:  12    -0.184565851935E+02    0.58791E-02   -0.22885E-02  6444   0.140E+00    0.899E-02
DAV:  13    -0.184566505999E+02   -0.65406E-04   -0.61676E-04  5464   0.205E-01    0.414E-02
DAV:  14    -0.184566664827E+02   -0.15883E-04   -0.59667E-05  7204   0.802E-02    0.358E-02
DAV:  15    -0.184566605892E+02    0.58935E-05   -0.15870E-05  6204   0.427E-02    0.170E-02
DAV:  16    -0.184566578989E+02    0.26904E-05   -0.74921E-06  6908   0.241E-02    0.527E-03
DAV:  17    -0.184566575053E+02    0.39354E-06   -0.75917E-07  6968   0.669E-03    0.203E-03
DAV:  18    -0.184566574329E+02    0.72466E-07   -0.12118E-07  6472   0.269E-03    0.856E-04
DAV:  19    -0.184566574076E+02    0.25295E-07   -0.12252E-08  3412   0.934E-04    0.442E-04
DAV:  20    -0.184566573926E+02    0.14970E-07   -0.60354E-09  3304   0.562E-04    0.137E-04
DAV:  21    -0.184566573927E+02   -0.80945E-10   -0.21112E-09  2844   0.347E-04
   1 F= -.18456657E+02 E0= -.18457282E+02  d E =-.184567E+02  mag=    -0.0000
       N       E                     dE             d eps       ncg     rms          rms(c)
DAV:   1    -0.133082327943E+03   -0.11463E+03   -0.15580E+03  5092   0.616E+02    0.786E+01
DAV:   2    -0.534056601538E+02    0.79677E+02   -0.60700E+02  6084   0.235E+02    0.513E+01
DAV:   3    -0.448114656999E+02    0.85942E+01   -0.31997E+02  6188   0.185E+02    0.380E+01
DAV:   4    -0.228571196240E+02    0.21954E+02   -0.57282E+01  5972   0.828E+01    0.137E+01
DAV:   5    -0.194471448593E+02    0.34100E+01   -0.15899E+01  6904   0.209E+01    0.238E+00
DAV:   6    -0.192299976975E+02    0.21715E+00   -0.15495E+00  5304   0.744E+00    0.188E+00
DAV:   7    -0.191956631949E+02    0.34335E-01   -0.49535E-01  5884   0.799E+00    0.207E+00
DAV:   8    -0.191710880229E+02    0.24575E-01   -0.22446E-01  6224   0.436E+00    0.119E+00
DAV:   9    -0.191611022066E+02    0.99858E-02   -0.14542E-02  6124   0.128E+00    0.517E-01
DAV:  10    -0.191589978446E+02    0.21044E-02   -0.12014E-02  7148   0.910E-01    0.221E-01
DAV:  11    -0.191585192437E+02    0.47860E-03   -0.10135E-03  5992   0.272E-01    0.563E-02
DAV:  12    -0.191584852644E+02    0.33979E-04   -0.94866E-05  7148   0.683E-02    0.956E-03
DAV:  13    -0.191584860664E+02   -0.80199E-06   -0.93834E-06  5868   0.217E-02    0.344E-03
DAV:  14    -0.191584859912E+02    0.75184E-07   -0.60742E-07  5576   0.640E-03    0.319E-03
DAV:  15    -0.191584859842E+02    0.70404E-08   -0.11489E-07  6092   0.319E-03    0.223E-03
DAV:  16    -0.191584858943E+02    0.89871E-07   -0.14285E-07  4920   0.327E-03    0.816E-04
DAV:  17    -0.191584858628E+02    0.31524E-07   -0.29151E-08  4476   0.142E-03    0.443E-04
DAV:  18    -0.191584858491E+02    0.13742E-07   -0.89808E-09  2780   0.107E-03    0.131E-04
DAV:  19    -0.191584858468E+02    0.22956E-08   -0.10558E-09  2752   0.351E-04
   2 F= -.19158486E+02 E0= -.19157541E+02  d E =-.701828E+00  mag=    -0.0000
       N       E                     dE             d eps       ncg     rms          rms(c)
DAV:   1    -0.527788215800E+02   -0.33620E+02   -0.31245E+02  5492   0.202E+02    0.628E+01
DAV:   2    -0.122052267393E+03   -0.69273E+02   -0.84203E+02  6476   0.376E+02    0.553E+01
DAV:   3    -0.325637394022E+02    0.89489E+02   -0.27166E+02  6488   0.151E+02    0.241E+01
DAV:   4    -0.197136748176E+02    0.12850E+02   -0.41225E+01  5992   0.688E+01    0.451E+00
DAV:   5    -0.198176632250E+02   -0.10399E+00   -0.37352E+00  5584   0.172E+01    0.336E+00
DAV:   6    -0.197828088668E+02    0.34854E-01   -0.13913E+00  5652   0.745E+00    0.562E+00
DAV:   7    -0.196345810744E+02    0.14823E+00   -0.29613E+00  6056   0.159E+01    0.341E+00
DAV:   8    -0.195678451669E+02    0.66736E-01   -0.88982E-02  5748   0.245E+00    0.236E+00
DAV:   9    -0.195019455631E+02    0.65900E-01   -0.11788E-01  6700   0.277E+00    0.484E-01
DAV:  10    -0.194970632175E+02    0.48823E-02   -0.11386E-02  5904   0.639E-01    0.180E-01
DAV:  11    -0.194969855424E+02    0.77675E-04   -0.11776E-03  6192   0.243E-01    0.157E-01
DAV:  12    -0.194966372171E+02    0.34833E-03   -0.71736E-04  7792   0.207E-01    0.231E-02
DAV:  13    -0.194966364081E+02    0.80896E-06   -0.63211E-05  5976   0.519E-02    0.108E-02
DAV:  14    -0.194966362933E+02    0.11479E-06   -0.95068E-06  6340   0.321E-02    0.511E-03
DAV:  15    -0.194966363343E+02   -0.40994E-07   -0.24830E-07  5416   0.370E-03    0.496E-03
DAV:  16    -0.194966367455E+02   -0.41116E-06   -0.56266E-07  6092   0.788E-03    0.891E-03
DAV:  17    -0.194966362888E+02    0.45671E-06   -0.69499E-07  6192   0.812E-03    0.409E-03
DAV:  18    -0.194966362615E+02    0.27262E-07   -0.56652E-07  6508   0.794E-03    0.731E-04
DAV:  19    -0.194966362613E+02    0.20282E-09   -0.20442E-08  4592   0.120E-03
   3 F= -.19496636E+02 E0= -.19495697E+02  d E =-.103998E+01  mag=    -0.0000
       N       E                     dE             d eps       ncg     rms          rms(c)
DAV:   1    -0.215180392777E+02   -0.20214E+01   -0.27087E+01  5456   0.556E+01    0.153E+01
DAV:   2    -0.281767473155E+02   -0.66587E+01   -0.53716E+01  6176   0.826E+01    0.224E+01
DAV:   3    -0.197368406206E+02    0.84399E+01   -0.22063E+01  6024   0.571E+01    0.258E+00
DAV:   4    -0.197447794954E+02   -0.79389E-02   -0.16043E+00  6816   0.943E+00    0.343E+00
DAV:   5    -0.196341649678E+02    0.11061E+00   -0.36715E-01  6204   0.573E+00    0.380E-01
DAV:   6    -0.196328016434E+02    0.13633E-02   -0.13995E-02  5344   0.890E-01    0.134E-01
DAV:   7    -0.196327701106E+02    0.31533E-04   -0.15306E-03  6212   0.444E-01    0.817E-02
DAV:   8    -0.196327320480E+02    0.38063E-04   -0.33481E-04  6732   0.209E-01    0.321E-02
DAV:   9    -0.196327190975E+02    0.12950E-04   -0.40609E-05  6380   0.391E-02    0.776E-03
DAV:  10    -0.196327190955E+02    0.20254E-08   -0.72826E-06  6684   0.299E-02    0.832E-03
DAV:  11    -0.196327182276E+02    0.86787E-06   -0.21315E-06  6500   0.121E-02    0.157E-03
DAV:  12    -0.196327182411E+02   -0.13443E-07   -0.91422E-08  5432   0.252E-03    0.146E-03
DAV:  13    -0.196327182341E+02    0.69595E-08   -0.14728E-08  3148   0.124E-03
   4 F= -.19632718E+02 E0= -.19632223E+02  d E =-.136082E+00  mag=    -0.0000
       N       E                     dE             d eps       ncg     rms          rms(c)
DAV:   1    -0.198571054934E+02   -0.22439E+00   -0.30135E+00  5440   0.193E+01    0.495E+00
DAV:   2    -0.206756059705E+02   -0.81850E+00   -0.51265E+00  6184   0.265E+01    0.925E+00
DAV:   3    -0.196511469624E+02    0.10245E+01   -0.33803E+00  6088   0.197E+01    0.779E-01
DAV:   4    -0.196461212147E+02    0.50257E-02   -0.52335E-02  5288   0.150E+00    0.484E-01
DAV:   5    -0.196438771742E+02    0.22440E-02   -0.46524E-03  5912   0.746E-01    0.930E-02
DAV:   6    -0.196437343768E+02    0.14280E-03   -0.36163E-04  5672   0.199E-01    0.229E-02
DAV:   7    -0.196437353170E+02   -0.94017E-06   -0.43316E-05  5480   0.517E-02    0.114E-02
DAV:   8    -0.196437332266E+02    0.20904E-05   -0.82056E-06  5776   0.243E-02    0.494E-03
DAV:   9    -0.196437326908E+02    0.53581E-06   -0.15736E-06  5904   0.158E-02    0.880E-04
DAV:  10    -0.196437326599E+02    0.30860E-07   -0.89059E-08  5688   0.231E-03    0.352E-04
DAV:  11    -0.196437326531E+02    0.68367E-08   -0.53331E-09  2796   0.845E-04
   5 F= -.19643733E+02 E0= -.19643293E+02  d E =-.147096E+00  mag=    -0.0001
       N       E                     dE             d eps       ncg     rms          rms(c)
DAV:   1    -0.196458320474E+02   -0.20994E-02   -0.27645E-02  5444   0.187E+00    0.486E-01
DAV:   2    -0.196547791810E+02   -0.89471E-02   -0.52311E-02  6188   0.261E+00    0.102E+00
DAV:   3    -0.196438905715E+02    0.10889E-01   -0.30673E-02  6096   0.198E+00    0.996E-02
DAV:   4    -0.196438068293E+02    0.83742E-04   -0.44703E-04  5216   0.158E-01    0.413E-02
DAV:   5    -0.196437911695E+02    0.15660E-04   -0.35965E-05  6116   0.668E-02    0.978E-03
DAV:   6    -0.196437894445E+02    0.17250E-05   -0.26472E-06  6012   0.152E-02    0.247E-03
DAV:   7    -0.196437893243E+02    0.12012E-06   -0.26699E-07  5452   0.471E-03    0.722E-04
DAV:   8    -0.196437892789E+02    0.45403E-07   -0.25844E-08  5184   0.138E-03    0.210E-04
DAV:   9    -0.196437892668E+02    0.12170E-07   -0.21896E-09  2612   0.500E-04    0.156E-04
DAV:  10    -0.196437892649E+02    0.18426E-08   -0.63786E-10  2568   0.267E-04
   6 F= -.19643789E+02 E0= -.19643364E+02  d E =-.147153E+00  mag=    -0.0002
       N       E                     dE             d eps       ncg     rms          rms(c)
DAV:   1    -0.198768331949E+02   -0.23304E+00   -0.88930E+00  5856   0.107E+02    0.756E+00
DAV:   2    -0.227164825974E+02   -0.28396E+01   -0.29156E+01  6272   0.466E+01    0.170E+01
DAV:   3    -0.196560582310E+02    0.30604E+01   -0.89997E+00  6192   0.326E+01    0.126E+00
DAV:   4    -0.196605789901E+02   -0.45208E-02   -0.19833E-01  5256   0.335E+00    0.568E-01
DAV:   5    -0.196573947269E+02    0.31843E-02   -0.49622E-03  6408   0.680E-01    0.136E-01
DAV:   6    -0.196572406228E+02    0.15410E-03   -0.33183E-04  5448   0.184E-01    0.188E-02
DAV:   7    -0.196572344127E+02    0.62100E-05   -0.34595E-05  5520   0.797E-02    0.637E-03
DAV:   8    -0.196572349497E+02   -0.53701E-06   -0.24945E-06  5772   0.221E-02    0.160E-03
DAV:   9    -0.196572350762E+02   -0.12650E-06   -0.37286E-07  5732   0.760E-03    0.114E-03
DAV:  10    -0.196572351066E+02   -0.30421E-07   -0.27953E-08  4296   0.198E-03    0.184E-04
DAV:  11    -0.196572351196E+02   -0.12930E-07   -0.40249E-09  2732   0.650E-04    0.899E-05
DAV:  12    -0.196572351191E+02    0.49204E-09   -0.79593E-10  2620   0.281E-04
   7 F= -.19657235E+02 E0= -.19656908E+02  d E =-.134459E-01  mag=    -0.0001
       N       E                     dE             d eps       ncg     rms          rms(c)
DAV:   1    -0.196635982446E+02   -0.63631E-02   -0.26312E-01  5576   0.190E+01    0.135E+00
DAV:   2    -0.197561453359E+02   -0.92547E-01   -0.59488E-01  6208   0.837E+00    0.306E+00
DAV:   3    -0.196577078158E+02    0.98438E-01   -0.28086E-01  6112   0.599E+00    0.217E-01
DAV:   4    -0.196576657232E+02    0.42093E-04   -0.38778E-03  5232   0.494E-01    0.112E-01
DAV:   5    -0.196575546035E+02    0.11112E-03   -0.22398E-04  6768   0.171E-01    0.179E-02
DAV:   6    -0.196575522399E+02    0.23636E-05   -0.20110E-05  5432   0.545E-02    0.113E-02
DAV:   7    -0.196575524497E+02   -0.20984E-06   -0.26279E-06  6232   0.190E-02    0.264E-03
DAV:   8    -0.196575523304E+02    0.11936E-06   -0.32482E-07  5580   0.845E-03    0.474E-04
DAV:   9    -0.196575523822E+02   -0.51843E-07   -0.15903E-08  4272   0.118E-03    0.135E-04
DAV:  10    -0.196575523898E+02   -0.75952E-08   -0.29986E-09  2656   0.866E-04
   8 F= -.19657552E+02 E0= -.19657252E+02  d E =-.137631E-01  mag=    -0.0001
       N       E                     dE             d eps       ncg     rms          rms(c)
DAV:   1    -0.195588064227E+02    0.98746E-01   -0.37995E+00  5720   0.829E+01    0.305E+00
DAV:   2    -0.201052660085E+02   -0.54646E+00   -0.35240E+00  6104   0.197E+01    0.599E+00
DAV:   3    -0.196669959795E+02    0.43827E+00   -0.15949E+00  6088   0.131E+01    0.746E-01
DAV:   4    -0.196630154378E+02    0.39805E-02   -0.23612E-02  5736   0.164E+00    0.312E-01
DAV:   5    -0.196623761533E+02    0.63928E-03   -0.10154E-03  5896   0.402E-01    0.172E-01
DAV:   6    -0.196621415284E+02    0.23462E-03   -0.33248E-04  6536   0.321E-01    0.114E-02
DAV:   7    -0.196621433507E+02   -0.18223E-05   -0.49618E-05  5404   0.101E-01    0.599E-03
DAV:   8    -0.196621428906E+02    0.46010E-06   -0.32924E-06  6640   0.306E-02    0.426E-03
DAV:   9    -0.196621427032E+02    0.18740E-06   -0.65689E-07  5768   0.113E-02    0.101E-03
DAV:  10    -0.196621426820E+02    0.21162E-07   -0.23350E-08  4324   0.235E-03    0.276E-04
DAV:  11    -0.196621427003E+02   -0.18279E-07   -0.34734E-09  2728   0.104E-03    0.943E-05
DAV:  12    -0.196621427047E+02   -0.44738E-08   -0.20592E-09  2576   0.661E-04
   9 F= -.19662143E+02 E0= -.19661878E+02  d E =-.459031E-02  mag=    -0.0002
       N       E                     dE             d eps       ncg     rms          rms(c)
DAV:   1    -0.196606841731E+02    0.14585E-02   -0.60687E-02  5872   0.103E+01    0.377E-01
DAV:   2    -0.196691684554E+02   -0.84843E-02   -0.56647E-02  6088   0.241E+00    0.785E-01
DAV:   3    -0.196622780050E+02    0.68905E-02   -0.20613E-02  6096   0.161E+00    0.965E-02
DAV:   4    -0.196622157912E+02    0.62214E-04   -0.37375E-04  5804   0.220E-01    0.340E-02
DAV:   5    -0.196622074287E+02    0.83625E-05   -0.12910E-05  5560   0.491E-02    0.230E-02
DAV:   6    -0.196622022821E+02    0.51466E-05   -0.68950E-06  6872   0.445E-02    0.227E-03
DAV:   7    -0.196622021879E+02    0.94216E-07   -0.87861E-07  5384   0.136E-02    0.629E-04
DAV:   8    -0.196622021639E+02    0.23976E-07   -0.27322E-08  4840   0.354E-03    0.427E-04
DAV:   9    -0.196622021475E+02    0.16361E-07   -0.12430E-08  2712   0.146E-03    0.112E-04
DAV:  10    -0.196622021491E+02   -0.15907E-08   -0.17597E-09  2536   0.509E-04
  10 F= -.19662202E+02 E0= -.19661942E+02  d E =-.464976E-02  mag=    -0.0003
       N       E                     dE             d eps       ncg     rms          rms(c)
DAV:   1    -0.196785458141E+02   -0.16344E-01   -0.20574E-01  6288   0.825E+00    0.139E+00
DAV:   2    -0.197652084934E+02   -0.86663E-01   -0.54566E-01  6200   0.809E+00    0.310E+00
DAV:   3    -0.196633135234E+02    0.10189E+00   -0.28619E-01  6088   0.603E+00    0.290E-01
DAV:   4    -0.196626636849E+02    0.64984E-03   -0.46526E-03  5224   0.540E-01    0.971E-02
DAV:   5    -0.196625823951E+02    0.81290E-04   -0.25807E-04  5960   0.193E-01    0.239E-02
DAV:   6    -0.196625728642E+02    0.95308E-05   -0.15333E-05  5824   0.379E-02    0.974E-03
DAV:   7    -0.196625730266E+02   -0.16242E-06   -0.23458E-06  5736   0.113E-02    0.239E-03
DAV:   8    -0.196625731744E+02   -0.14777E-06   -0.26347E-07  5720   0.552E-03    0.594E-04
DAV:   9    -0.196625732169E+02   -0.42441E-07   -0.24522E-08  4432   0.192E-03    0.335E-04
DAV:  10    -0.196625732224E+02   -0.55497E-08   -0.33764E-09  2636   0.777E-04
  11 F= -.19662573E+02 E0= -.19662300E+02  d E =-.371073E-03  mag=    -0.0004
       N       E                     dE             d eps       ncg     rms          rms(c)
DAV:   1    -0.196625743587E+02   -0.11419E-05   -0.13947E-05  6264   0.679E-02    0.117E-02
DAV:   2    -0.196625802750E+02   -0.59163E-05   -0.35244E-05  6184   0.671E-02    0.262E-02
DAV:   3    -0.196625732464E+02    0.70286E-05   -0.19859E-05  6104   0.504E-02    0.224E-03
DAV:   4    -0.196625732186E+02    0.27781E-07   -0.27545E-07  5192   0.408E-03    0.902E-04
DAV:   5    -0.196625732175E+02    0.11705E-08   -0.18677E-08  3640   0.157E-03
  12 F= -.19662573E+02 E0= -.19662300E+02  d E =-.371068E-03  mag=    -0.0006
       N       E                     dE             d eps       ncg     rms          rms(c)
DAV:   1    -0.196646114554E+02   -0.20382E-02   -0.34599E-02  6272   0.505E+00    0.547E-01
DAV:   2    -0.196769867043E+02   -0.12375E-01   -0.72091E-02  6208   0.326E+00    0.118E+00
DAV:   3    -0.196626855839E+02    0.14301E-01   -0.40839E-02  6112   0.227E+00    0.926E-02
DAV:   4    -0.196626345795E+02    0.51004E-04   -0.52879E-04  5208   0.177E-01    0.503E-02
DAV:   5    -0.196626079775E+02    0.26602E-04   -0.44835E-05  6768   0.667E-02    0.836E-03
DAV:   6    -0.196626064436E+02    0.15339E-05   -0.31629E-06  5296   0.208E-02    0.405E-03
DAV:   7    -0.196626061784E+02    0.26522E-06   -0.28780E-07  7052   0.548E-03    0.890E-04
DAV:   8    -0.196626061078E+02    0.70564E-07   -0.31668E-08  5068   0.165E-03    0.297E-04
DAV:   9    -0.196626060952E+02    0.12648E-07   -0.21006E-09  2732   0.472E-04    0.301E-04
DAV:  10    -0.196626060964E+02   -0.12169E-08   -0.37651E-10  2564   0.243E-04
  13 F= -.19662606E+02 E0= -.19662345E+02  d E =-.328789E-04  mag=    -0.0012
       N       E                     dE             d eps       ncg     rms          rms(c)
DAV:   1    -0.196627433499E+02   -0.13725E-03   -0.22842E-03  6272   0.130E+00    0.140E-01
DAV:   2    -0.196635604989E+02   -0.81715E-03   -0.49180E-03  6208   0.837E-01    0.303E-01
DAV:   3    -0.196626143432E+02    0.94616E-03   -0.25928E-03  6120   0.581E-01    0.228E-02
DAV:   4    -0.196626118135E+02    0.25297E-05   -0.34517E-05  5184   0.448E-02    0.126E-02
DAV:   5    -0.196626103868E+02    0.14267E-05   -0.28230E-06  6676   0.166E-02    0.212E-03
DAV:   6    -0.196626104674E+02   -0.80554E-07   -0.21034E-07  5300   0.542E-03    0.113E-03
DAV:   7    -0.196626105227E+02   -0.55255E-07   -0.18965E-08  3580   0.145E-03    0.548E-04
DAV:   8    -0.196626105373E+02   -0.14639E-07   -0.70370E-09  2692   0.857E-04    0.581E-04
DAV:   9    -0.196626105286E+02    0.86793E-08   -0.49405E-09  2548   0.851E-04
  14 F= -.19662611E+02 E0= -.19662346E+02  d E =-.373112E-04  mag=    -0.0020
