   4   4   0   0
  0.1407732E+02  0.4644934E-09  0.4644934E-09  0.2782456E-09  0.5000000E-15
  1.000000000000000E-004
  CAR 
 unknown system                          
     24.59870661    -58.74332947  301      8.64853945      1.00000000
    -58.743  0.0000E+00  0.0000E+00  0.0000E+00  0.0000E+00
    -58.466  0.0000E+00  0.0000E+00  0.0000E+00  0.0000E+00
    -58.188  0.0000E+00  0.0000E+00  0.0000E+00  0.0000E+00
    -57.910  0.0000E+00  0.0000E+00  0.0000E+00  0.0000E+00
    -57.632  0.0000E+00  0.0000E+00  0.0000E+00  0.0000E+00
    -57.354  0.0000E+00  0.0000E+00  0.0000E+00  0.0000E+00
    -57.076  0.0000E+00  0.0000E+00  0.0000E+00  0.0000E+00
    -56.799  0.0000E+00  0.0000E+00  0.0000E+00  0.0000E+00
    -56.521  0.0000E+00  0.0000E+00  0.0000E+00  0.0000E+00
    -56.243  0.0000E+00  0.0000E+00  0.0000E+00  0.0000E+00
    -55.965  0.0000E+00  0.0000E+00  0.0000E+00  0.0000E+00
    -55.687  0.0000E+00  0.0000E+00  0.0000E+00  0.0000E+00
    -55.410  0.0000E+00  0.0000E+00  0.0000E+00  0.0000E+00
    -55.132  0.0000E+00  0.0000E+00  0.0000E+00  0.0000E+00
    -54.854  0.0000E+00  0.0000E+00  0.2000E+01  0.2000E+01
    -54.576  0.0000E+00  0.0000E+00  0.3000E+01  0.3000E+01
    -54.298  0.0000E+00  0.0000E+00  0.3000E+01  0.3000E+01
    -54.021  0.0000E+00  0.0000E+00  0.3000E+01  0.3000E+01
    -53.743  0.0000E+00  0.0000E+00  0.3000E+01  0.3000E+01
    -53.465  0.0000E+00  0.0000E+00  0.3000E+01  0.3000E+01
    -53.187  0.0000E+00  0.0000E+00  0.3000E+01  0.3000E+01
    -52.909  0.0000E+00  0.0000E+00  0.3000E+01  0.3000E+01
    -52.632  0.0000E+00  0.0000E+00  0.3000E+01  0.3000E+01
    -52.354  0.0000E+00  0.0000E+00  0.3000E+01  0.3000E+01
    -52.076  0.0000E+00  0.0000E+00  0.3000E+01  0.3000E+01
    -51.798  0.0000E+00  0.0000E+00  0.3000E+01  0.3000E+01
    -51.520  0.0000E+00  0.0000E+00  0.3000E+01  0.3000E+01
    -51.243  0.0000E+00  0.0000E+00  0.3000E+01  0.3000E+01
    -50.965  0.0000E+00  0.0000E+00  0.3000E+01  0.3000E+01
    -50.687  0.0000E+00  0.0000E+00  0.3000E+01  0.3000E+01
    -50.409  0.0000E+00  0.0000E+00  0.3000E+01  0.3000E+01
    -50.131  0.0000E+00  0.0000E+00  0.3000E+01  0.3000E+01
    -49.854  0.0000E+00  0.0000E+00  0.3000E+01  0.3000E+01
    -49.576  0.0000E+00  0.0000E+00  0.3000E+01  0.3000E+01
    -49.298  0.0000E+00  0.0000E+00  0.3000E+01  0.3000E+01
    -49.020  0.0000E+00  0.0000E+00  0.3000E+01  0.3000E+01
    -48.742  0.0000E+00  0.0000E+00  0.3000E+01  0.3000E+01
    -48.464  0.0000E+00  0.0000E+00  0.3000E+01  0.3000E+01
    -48.187  0.0000E+00  0.0000E+00  0.3000E+01  0.3000E+01
    -47.909  0.0000E+00  0.0000E+00  0.3000E+01  0.3000E+01
    -47.631  0.0000E+00  0.0000E+00  0.3000E+01  0.3000E+01
    -47.353  0.0000E+00  0.0000E+00  0.3000E+01  0.3000E+01
    -47.075  0.0000E+00  0.0000E+00  0.3000E+01  0.3000E+01
    -46.798  0.0000E+00  0.0000E+00  0.3000E+01  0.3000E+01
    -46.520  0.0000E+00  0.0000E+00  0.3000E+01  0.3000E+01
    -46.242  0.0000E+00  0.0000E+00  0.3000E+01  0.3000E+01
    -45.964  0.0000E+00  0.0000E+00  0.3000E+01  0.3000E+01
    -45.686  0.0000E+00  0.0000E+00  0.3000E+01  0.3000E+01
    -45.409  0.0000E+00  0.0000E+00  0.3000E+01  0.3000E+01
    -45.131  0.0000E+00  0.0000E+00  0.3000E+01  0.3000E+01
    -44.853  0.0000E+00  0.0000E+00  0.3000E+01  0.3000E+01
    -44.575  0.0000E+00  0.0000E+00  0.3000E+01  0.3000E+01
    -44.297  0.0000E+00  0.0000E+00  0.3000E+01  0.3000E+01
    -44.020  0.0000E+00  0.0000E+00  0.3000E+01  0.3000E+01
    -43.742  0.0000E+00  0.0000E+00  0.3000E+01  0.3000E+01
    -43.464  0.0000E+00  0.0000E+00  0.3000E+01  0.3000E+01
    -43.186  0.0000E+00  0.0000E+00  0.3000E+01  0.3000E+01
    -42.908  0.0000E+00  0.0000E+00  0.3000E+01  0.3000E+01
    -42.631  0.0000E+00  0.0000E+00  0.3000E+01  0.3000E+01
    -42.353  0.0000E+00  0.0000E+00  0.3000E+01  0.3000E+01
    -42.075  0.0000E+00  0.0000E+00  0.3000E+01  0.3000E+01
    -41.797  0.0000E+00  0.0000E+00  0.3000E+01  0.3000E+01
    -41.519  0.0000E+00  0.0000E+00  0.3000E+01  0.3000E+01
    -41.242  0.0000E+00  0.0000E+00  0.3000E+01  0.3000E+01
    -40.964  0.0000E+00  0.0000E+00  0.3000E+01  0.3000E+01
    -40.686  0.0000E+00  0.0000E+00  0.3000E+01  0.3000E+01
    -40.408  0.0000E+00  0.0000E+00  0.3000E+01  0.3000E+01
    -40.130  0.0000E+00  0.0000E+00  0.3000E+01  0.3000E+01
    -39.852  0.0000E+00  0.0000E+00  0.3000E+01  0.3000E+01
    -39.575  0.0000E+00  0.0000E+00  0.3000E+01  0.3000E+01
    -39.297  0.0000E+00  0.0000E+00  0.3000E+01  0.3000E+01
    -39.019  0.0000E+00  0.0000E+00  0.3000E+01  0.3000E+01
    -38.741  0.0000E+00  0.0000E+00  0.3000E+01  0.3000E+01
    -38.463  0.0000E+00  0.0000E+00  0.3000E+01  0.3000E+01
    -38.186  0.0000E+00  0.0000E+00  0.3000E+01  0.3000E+01
    -37.908  0.0000E+00  0.0000E+00  0.3000E+01  0.3000E+01
    -37.630  0.0000E+00  0.0000E+00  0.3000E+01  0.3000E+01
    -37.352  0.0000E+00  0.0000E+00  0.3000E+01  0.3000E+01
    -37.074  0.0000E+00  0.0000E+00  0.3000E+01  0.3000E+01
    -36.797  0.0000E+00  0.0000E+00  0.3000E+01  0.3000E+01
    -36.519  0.0000E+00  0.0000E+00  0.3000E+01  0.3000E+01
    -36.241  0.0000E+00  0.0000E+00  0.3000E+01  0.3000E+01
    -35.963  0.0000E+00  0.0000E+00  0.3000E+01  0.3000E+01
    -35.685  0.0000E+00  0.0000E+00  0.3000E+01  0.3000E+01
    -35.408  0.0000E+00  0.0000E+00  0.3000E+01  0.3000E+01
    -35.130  0.0000E+00  0.0000E+00  0.3000E+01  0.3000E+01
    -34.852  0.0000E+00  0.0000E+00  0.3000E+01  0.3000E+01
    -34.574  0.0000E+00  0.0000E+00  0.3000E+01  0.3000E+01
    -34.296  0.0000E+00  0.0000E+00  0.3000E+01  0.3000E+01
    -34.019  0.0000E+00  0.0000E+00  0.3000E+01  0.3000E+01
    -33.741  0.0000E+00  0.0000E+00  0.3000E+01  0.3000E+01
    -33.463  0.0000E+00  0.0000E+00  0.3000E+01  0.3000E+01
    -33.185  0.0000E+00  0.0000E+00  0.3000E+01  0.3000E+01
    -32.907  0.0000E+00  0.0000E+00  0.3000E+01  0.3000E+01
    -32.629  0.0000E+00  0.0000E+00  0.3000E+01  0.3000E+01
    -32.352  0.0000E+00  0.0000E+00  0.3000E+01  0.3000E+01
    -32.074  0.0000E+00  0.0000E+00  0.3000E+01  0.3000E+01
    -31.796  0.0000E+00  0.0000E+00  0.3000E+01  0.3000E+01
    -31.518  0.0000E+00  0.0000E+00  0.3000E+01  0.3000E+01
    -31.240  0.0000E+00  0.0000E+00  0.3000E+01  0.3000E+01
    -30.963  0.0000E+00  0.0000E+00  0.3000E+01  0.3000E+01
    -30.685  0.0000E+00  0.0000E+00  0.3000E+01  0.3000E+01
    -30.407  0.0000E+00  0.0000E+00  0.3000E+01  0.3000E+01
    -30.129  0.0000E+00  0.0000E+00  0.3000E+01  0.3000E+01
    -29.851  0.0000E+00  0.0000E+00  0.3000E+01  0.3000E+01
    -29.574  0.0000E+00  0.0000E+00  0.3000E+01  0.3000E+01
    -29.296  0.0000E+00  0.0000E+00  0.3000E+01  0.3000E+01
    -29.018  0.0000E+00  0.0000E+00  0.3000E+01  0.3000E+01
    -28.740  0.0000E+00  0.0000E+00  0.3000E+01  0.3000E+01
    -28.462  0.0000E+00  0.0000E+00  0.3000E+01  0.3000E+01
    -28.185  0.0000E+00  0.0000E+00  0.3000E+01  0.3000E+01
    -27.907  0.0000E+00  0.0000E+00  0.3000E+01  0.3000E+01
    -27.629  0.0000E+00  0.0000E+00  0.3000E+01  0.3000E+01
    -27.351  0.0000E+00  0.0000E+00  0.3000E+01  0.3000E+01
    -27.073  0.0000E+00  0.0000E+00  0.3000E+01  0.3000E+01
    -26.796  0.0000E+00  0.0000E+00  0.3000E+01  0.3000E+01
    -26.518  0.0000E+00  0.0000E+00  0.3000E+01  0.3000E+01
    -26.240  0.0000E+00  0.0000E+00  0.3000E+01  0.3000E+01
    -25.962  0.0000E+00  0.0000E+00  0.3000E+01  0.3000E+01
    -25.684  0.0000E+00  0.0000E+00  0.3000E+01  0.3000E+01
    -25.407  0.0000E+00  0.0000E+00  0.3000E+01  0.3000E+01
    -25.129  0.0000E+00  0.0000E+00  0.3000E+01  0.3000E+01
    -24.851  0.0000E+00  0.0000E+00  0.3000E+01  0.3000E+01
    -24.573  0.0000E+00  0.0000E+00  0.3000E+01  0.3000E+01
    -24.295  0.0000E+00  0.0000E+00  0.3000E+01  0.3000E+01
    -24.017  0.0000E+00  0.0000E+00  0.3000E+01  0.3000E+01
    -23.740  0.0000E+00  0.0000E+00  0.3000E+01  0.3000E+01
    -23.462  0.0000E+00  0.0000E+00  0.3000E+01  0.3000E+01
    -23.184  0.0000E+00  0.0000E+00  0.3000E+01  0.3000E+01
    -22.906  0.0000E+00  0.0000E+00  0.3000E+01  0.3000E+01
    -22.628  0.0000E+00  0.0000E+00  0.3000E+01  0.3000E+01
    -22.351  0.0000E+00  0.0000E+00  0.3000E+01  0.3000E+01
    -22.073  0.0000E+00  0.0000E+00  0.3000E+01  0.3000E+01
    -21.795  0.0000E+00  0.0000E+00  0.3000E+01  0.3000E+01
    -21.517  0.0000E+00  0.0000E+00  0.3000E+01  0.3000E+01
    -21.239  0.0000E+00  0.0000E+00  0.3000E+01  0.3000E+01
    -20.962  0.0000E+00  0.0000E+00  0.3000E+01  0.3000E+01
    -20.684  0.0000E+00  0.0000E+00  0.3000E+01  0.3000E+01
    -20.406  0.0000E+00  0.0000E+00  0.3000E+01  0.3000E+01
    -20.128  0.0000E+00  0.0000E+00  0.3000E+01  0.3000E+01
    -19.850  0.0000E+00  0.0000E+00  0.3000E+01  0.3000E+01
    -19.573  0.0000E+00  0.0000E+00  0.3000E+01  0.3000E+01
    -19.295  0.0000E+00  0.0000E+00  0.3000E+01  0.3000E+01
    -19.017  0.0000E+00  0.0000E+00  0.3000E+01  0.3000E+01
    -18.739  0.0000E+00  0.0000E+00  0.3000E+01  0.3000E+01
    -18.461  0.0000E+00  0.0000E+00  0.3000E+01  0.3000E+01
    -18.184  0.0000E+00  0.0000E+00  0.3000E+01  0.3000E+01
    -17.906  0.0000E+00  0.0000E+00  0.3000E+01  0.3000E+01
    -17.628  0.0000E+00  0.0000E+00  0.3000E+01  0.3000E+01
    -17.350  0.0000E+00  0.0000E+00  0.3000E+01  0.3000E+01
    -17.072  0.0000E+00  0.0000E+00  0.3000E+01  0.3000E+01
    -16.795  0.0000E+00  0.0000E+00  0.3000E+01  0.3000E+01
    -16.517  0.0000E+00  0.0000E+00  0.3000E+01  0.3000E+01
    -16.239  0.0000E+00  0.0000E+00  0.3000E+01  0.3000E+01
    -15.961  0.0000E+00  0.0000E+00  0.3000E+01  0.3000E+01
    -15.683  0.0000E+00  0.0000E+00  0.3000E+01  0.3000E+01
    -15.405  0.0000E+00  0.0000E+00  0.3000E+01  0.3000E+01
    -15.128  0.0000E+00  0.0000E+00  0.3000E+01  0.3000E+01
    -14.850  0.0000E+00  0.0000E+00  0.3000E+01  0.3000E+01
    -14.572  0.0000E+00  0.0000E+00  0.3000E+01  0.3000E+01
    -14.294  0.0000E+00  0.0000E+00  0.3000E+01  0.3000E+01
    -14.016  0.0000E+00  0.0000E+00  0.3000E+01  0.3000E+01
    -13.739  0.0000E+00  0.0000E+00  0.3000E+01  0.3000E+01
    -13.461  0.0000E+00  0.0000E+00  0.3000E+01  0.3000E+01
    -13.183  0.0000E+00  0.0000E+00  0.3000E+01  0.3000E+01
    -12.905  0.0000E+00  0.0000E+00  0.3000E+01  0.3000E+01
    -12.627  0.0000E+00  0.0000E+00  0.3000E+01  0.3000E+01
    -12.350  0.0000E+00  0.0000E+00  0.3000E+01  0.3000E+01
    -12.072  0.0000E+00  0.0000E+00  0.3000E+01  0.3000E+01
    -11.794  0.0000E+00  0.0000E+00  0.3000E+01  0.3000E+01
    -11.516  0.0000E+00  0.0000E+00  0.3000E+01  0.3000E+01
    -11.238  0.0000E+00  0.0000E+00  0.3000E+01  0.3000E+01
    -10.961  0.0000E+00  0.0000E+00  0.3000E+01  0.3000E+01
    -10.683  0.0000E+00  0.0000E+00  0.3000E+01  0.3000E+01
    -10.405  0.0000E+00  0.0000E+00  0.3000E+01  0.3000E+01
    -10.127  0.0000E+00  0.0000E+00  0.3000E+01  0.3000E+01
     -9.849  0.0000E+00  0.0000E+00  0.3000E+01  0.3000E+01
     -9.572  0.0000E+00  0.0000E+00  0.3000E+01  0.3000E+01
     -9.294  0.0000E+00  0.0000E+00  0.3000E+01  0.3000E+01
     -9.016  0.0000E+00  0.0000E+00  0.3000E+01  0.3000E+01
     -8.738  0.0000E+00  0.0000E+00  0.3000E+01  0.3000E+01
     -8.460  0.0000E+00  0.0000E+00  0.3000E+01  0.3000E+01
     -8.182  0.0000E+00  0.0000E+00  0.3000E+01  0.3000E+01
     -7.905  0.0000E+00  0.0000E+00  0.3000E+01  0.3000E+01
     -7.627  0.0000E+00  0.0000E+00  0.3000E+01  0.3000E+01
     -7.349  0.0000E+00  0.0000E+00  0.3000E+01  0.3000E+01
     -7.071  0.0000E+00  0.0000E+00  0.3000E+01  0.3000E+01
     -6.793  0.0000E+00  0.0000E+00  0.3000E+01  0.3000E+01
     -6.516  0.0000E+00  0.0000E+00  0.3000E+01  0.3000E+01
     -6.238  0.0000E+00  0.0000E+00  0.3000E+01  0.3000E+01
     -5.960  0.0000E+00  0.0000E+00  0.3000E+01  0.3000E+01
     -5.682  0.0000E+00  0.0000E+00  0.3000E+01  0.3000E+01
     -5.404  0.0000E+00  0.0000E+00  0.3000E+01  0.3000E+01
     -5.127  0.0000E+00  0.0000E+00  0.3000E+01  0.3000E+01
     -4.849  0.0000E+00  0.0000E+00  0.3000E+01  0.3000E+01
     -4.571  0.0000E+00  0.0000E+00  0.3000E+01  0.3000E+01
     -4.293  0.0000E+00  0.0000E+00  0.3000E+01  0.3000E+01
     -4.015  0.0000E+00  0.0000E+00  0.3000E+01  0.3000E+01
     -3.738  0.0000E+00  0.0000E+00  0.3000E+01  0.3000E+01
     -3.460  0.0000E+00  0.0000E+00  0.3000E+01  0.3000E+01
     -3.182  0.0000E+00  0.0000E+00  0.3000E+01  0.3000E+01
     -2.904  0.0000E+00  0.0000E+00  0.3000E+01  0.3000E+01
     -2.626  0.5482E-02  0.5482E-02  0.3000E+01  0.3000E+01
     -2.349  0.1077E+00  0.1077E+00  0.3016E+01  0.3016E+01
     -2.071  0.1432E+00  0.1432E+00  0.3050E+01  0.3050E+01
     -1.793  0.1905E+00  0.1905E+00  0.3097E+01  0.3097E+01
     -1.515  0.2276E+00  0.2276E+00  0.3155E+01  0.3155E+01
     -1.237  0.2874E+00  0.2874E+00  0.3225E+01  0.3225E+01
     -0.960  0.3100E+00  0.3100E+00  0.3314E+01  0.3314E+01
     -0.682  0.3311E+00  0.3311E+00  0.3402E+01  0.3402E+01
     -0.404  0.2476E+00  0.2476E+00  0.3482E+01  0.3482E+01
     -0.126  0.2284E+00  0.2284E+00  0.3546E+01  0.3546E+01
      0.152  0.3191E+00  0.3191E+00  0.3617E+01  0.3617E+01
      0.430  0.4141E+00  0.4141E+00  0.3724E+01  0.3724E+01
      0.707  0.3796E+00  0.3796E+00  0.3834E+01  0.3834E+01
      0.985  0.3834E+00  0.3834E+00  0.3940E+01  0.3940E+01
      1.263  0.4039E+00  0.4039E+00  0.4054E+01  0.4054E+01
      1.541  0.4204E+00  0.4204E+00  0.4168E+01  0.4168E+01
      1.819  0.4382E+00  0.4382E+00  0.4288E+01  0.4288E+01
      2.096  0.4590E+00  0.4590E+00  0.4412E+01  0.4412E+01
      2.374  0.4625E+00  0.4625E+00  0.4547E+01  0.4547E+01
      2.652  0.4934E+00  0.4934E+00  0.4676E+01  0.4676E+01
      2.930  0.4220E+00  0.4220E+00  0.4799E+01  0.4799E+01
      3.208  0.5723E+00  0.5723E+00  0.4939E+01  0.4939E+01
      3.485  0.8461E+00  0.8461E+00  0.5130E+01  0.5130E+01
      3.763  0.5995E+00  0.5995E+00  0.5338E+01  0.5338E+01
      4.041  0.4803E+00  0.4803E+00  0.5479E+01  0.5479E+01
      4.319  0.7386E+00  0.7386E+00  0.5662E+01  0.5662E+01
      4.597  0.6043E+00  0.6043E+00  0.5852E+01  0.5852E+01
      4.874  0.7405E+00  0.7405E+00  0.6023E+01  0.6023E+01
      5.152  0.1020E+01  0.1020E+01  0.6280E+01  0.6280E+01
      5.430  0.1353E+01  0.1353E+01  0.6599E+01  0.6599E+01
      5.708  0.2084E+01  0.2084E+01  0.7109E+01  0.7109E+01
      5.986  0.1764E+01  0.1764E+01  0.7717E+01  0.7717E+01
      6.263  0.2113E+01  0.2113E+01  0.8374E+01  0.8374E+01
      6.541  0.1516E+01  0.1516E+01  0.8984E+01  0.8984E+01
      6.819  0.2647E+01  0.2647E+01  0.9458E+01  0.9458E+01
      7.097  0.3715E+01  0.3715E+01  0.1018E+02  0.1018E+02
      7.375  0.1504E+01  0.1504E+01  0.1115E+02  0.1115E+02
      7.652  0.1178E+01  0.1178E+01  0.1150E+02  0.1150E+02
      7.930  0.9889E+00  0.9889E+00  0.1183E+02  0.1183E+02
      8.208  0.9769E+00  0.9769E+00  0.1209E+02  0.1209E+02
      8.486  0.8842E+00  0.8842E+00  0.1236E+02  0.1236E+02
      8.764  0.7437E+00  0.7437E+00  0.1259E+02  0.1259E+02
      9.042  0.7996E+00  0.7996E+00  0.1279E+02  0.1279E+02
      9.319  0.7773E+00  0.7773E+00  0.1301E+02  0.1301E+02
      9.597  0.9451E+00  0.9451E+00  0.1325E+02  0.1325E+02
      9.875  0.5654E+00  0.5654E+00  0.1345E+02  0.1345E+02
     10.153  0.6861E+00  0.6861E+00  0.1360E+02  0.1360E+02
     10.431  0.6658E+00  0.6658E+00  0.1379E+02  0.1379E+02
     10.708  0.7674E+00  0.7674E+00  0.1400E+02  0.1400E+02
     10.986  0.8132E+00  0.8132E+00  0.1421E+02  0.1421E+02
     11.264  0.8864E+00  0.8864E+00  0.1446E+02  0.1446E+02
     11.542  0.8814E+00  0.8814E+00  0.1472E+02  0.1472E+02
     11.820  0.8445E+00  0.8445E+00  0.1496E+02  0.1496E+02
     12.097  0.7970E+00  0.7970E+00  0.1519E+02  0.1519E+02
     12.375  0.8070E+00  0.8070E+00  0.1541E+02  0.1541E+02
     12.653  0.7803E+00  0.7803E+00  0.1563E+02  0.1563E+02
     12.931  0.8055E+00  0.8055E+00  0.1585E+02  0.1585E+02
     13.209  0.1027E+01  0.1027E+01  0.1610E+02  0.1610E+02
     13.486  0.9756E+00  0.9756E+00  0.1639E+02  0.1639E+02
     13.764  0.9257E+00  0.9257E+00  0.1666E+02  0.1666E+02
     14.042  0.7666E+00  0.7666E+00  0.1689E+02  0.1689E+02
     14.320  0.7803E+00  0.7803E+00  0.1710E+02  0.1710E+02
     14.598  0.8406E+00  0.8406E+00  0.1732E+02  0.1732E+02
     14.875  0.8199E+00  0.8199E+00  0.1757E+02  0.1757E+02
     15.153  0.8312E+00  0.8312E+00  0.1779E+02  0.1779E+02
     15.431  0.9209E+00  0.9209E+00  0.1803E+02  0.1803E+02
     15.709  0.9635E+00  0.9635E+00  0.1829E+02  0.1829E+02
     15.987  0.8856E+00  0.8856E+00  0.1856E+02  0.1856E+02
     16.265  0.7736E+00  0.7736E+00  0.1879E+02  0.1879E+02
     16.542  0.7734E+00  0.7734E+00  0.1902E+02  0.1902E+02
     16.820  0.7018E+00  0.7018E+00  0.1922E+02  0.1922E+02
     17.098  0.6559E+00  0.6559E+00  0.1942E+02  0.1942E+02
     17.376  0.4909E+00  0.4909E+00  0.1958E+02  0.1958E+02
     17.654  0.3320E+00  0.3320E+00  0.1969E+02  0.1969E+02
     17.931  0.2320E+00  0.2320E+00  0.1977E+02  0.1977E+02
     18.209  0.1794E+00  0.1794E+00  0.1983E+02  0.1983E+02
     18.487  0.1366E+00  0.1366E+00  0.1987E+02  0.1987E+02
     18.765  0.1116E+00  0.1116E+00  0.1990E+02  0.1990E+02
     19.043  0.9383E-01  0.9382E-01  0.1993E+02  0.1993E+02
     19.320  0.7681E-01  0.7681E-01  0.1996E+02  0.1996E+02
     19.598  0.6287E-01  0.6287E-01  0.1998E+02  0.1998E+02
     19.876  0.4121E-01  0.4122E-01  0.1999E+02  0.1999E+02
     20.154  0.1230E-01  0.1231E-01  0.2000E+02  0.2000E+02
     20.432  0.3771E-02  0.3777E-02  0.2000E+02  0.2000E+02
     20.709  0.2334E-03  0.2338E-03  0.2000E+02  0.2000E+02
     20.987  0.0000E+00  0.0000E+00  0.2000E+02  0.2000E+02
     21.265  0.0000E+00  0.0000E+00  0.2000E+02  0.2000E+02
     21.543  0.0000E+00  0.0000E+00  0.2000E+02  0.2000E+02
     21.821  0.0000E+00  0.0000E+00  0.2000E+02  0.2000E+02
     22.098  0.0000E+00  0.0000E+00  0.2000E+02  0.2000E+02
     22.376  0.0000E+00  0.0000E+00  0.2000E+02  0.2000E+02
     22.654  0.0000E+00  0.0000E+00  0.2000E+02  0.2000E+02
     22.932  0.0000E+00  0.0000E+00  0.2000E+02  0.2000E+02
     23.210  0.0000E+00  0.0000E+00  0.2000E+02  0.2000E+02
     23.487  0.0000E+00  0.0000E+00  0.2000E+02  0.2000E+02
     23.765  0.0000E+00  0.0000E+00  0.2000E+02  0.2000E+02
     24.043  0.0000E+00  0.0000E+00  0.2000E+02  0.2000E+02
     24.321  0.0000E+00  0.0000E+00  0.2000E+02  0.2000E+02
     24.599  0.0000E+00  0.0000E+00  0.2000E+02  0.2000E+02
