 running on   24 total cores
 distrk:  each k-point on   24 cores,    1 groups
 distr:  one band on    6 cores,    4 groups
 using from now: INCAR     
 vasp.5.4.4.18Apr17-6-g9f103f2a35 (build Jan 03 2018 06:08:52) complex          
  
 POSCAR found :  2 types and       4 ions
 scaLAPACK will be used
 WARNING: for PREC=h ENMAX is automatically increase by 25 %
        this was not the case for versions prior to vasp.4.4
 WARNING: for PREC=h ENMAX is automatically increase by 25 %
        this was not the case for versions prior to vasp.4.4
 LDA part: xc-table for Pade appr. of Perdew
 POSCAR, INCAR and KPOINTS ok, starting setup
 FFT: planning ...
 WAVECAR not read
 entering main loop
       N       E                     dE             d eps       ncg     rms          rms(c)
DAV:   1     0.130146774036E+03    0.13015E+03   -0.13635E+04  6240   0.113E+03
DAV:   2    -0.140040537455E+02   -0.14415E+03   -0.13916E+03  5372   0.302E+02
DAV:   3    -0.183973285334E+02   -0.43933E+01   -0.43119E+01  6424   0.581E+01
DAV:   4    -0.184753778409E+02   -0.78049E-01   -0.77979E-01  6020   0.771E+00
DAV:   5    -0.184777070723E+02   -0.23292E-02   -0.23291E-02  6140   0.142E+00    0.227E+01
DAV:   6    -0.351593418594E+02   -0.16682E+02   -0.26795E+02  5900   0.192E+02    0.306E+01
DAV:   7    -0.174932768380E+02    0.17666E+02   -0.37108E+01  6604   0.980E+01    0.105E+01
DAV:   8    -0.161079039963E+02    0.13854E+01   -0.67068E+00  7224   0.380E+01    0.136E+00
DAV:   9    -0.161228624408E+02   -0.14958E-01   -0.43072E-01  6692   0.772E+00    0.182E+00
DAV:  10    -0.161080135268E+02    0.14849E-01   -0.45752E-02  7080   0.276E+00    0.764E-01
DAV:  11    -0.161048863023E+02    0.31272E-02   -0.87750E-02  7312   0.353E+00    0.553E-01
DAV:  12    -0.161025431859E+02    0.23431E-02   -0.75150E-03  7664   0.967E-01    0.246E-01
DAV:  13    -0.161018901836E+02    0.65300E-03   -0.34958E-03  7424   0.664E-01    0.222E-02
DAV:  14    -0.161019003858E+02   -0.10202E-04   -0.92643E-05  5768   0.669E-02    0.145E-02
DAV:  15    -0.161018986017E+02    0.17841E-05   -0.75890E-06  7648   0.301E-02    0.363E-03
DAV:  16    -0.161018980952E+02    0.50652E-06   -0.43246E-07  5952   0.513E-03    0.138E-03
DAV:  17    -0.161018980158E+02    0.79361E-07   -0.36954E-08  5864   0.160E-03    0.528E-04
DAV:  18    -0.161018980260E+02   -0.10123E-07   -0.85407E-09  3288   0.787E-04    0.199E-04
DAV:  19    -0.161018980383E+02   -0.12320E-07   -0.19691E-09  3152   0.501E-04    0.989E-05
DAV:  20    -0.161018980394E+02   -0.10964E-08   -0.35658E-10  3072   0.167E-04
   1 F= -.16101898E+02 E0= -.16102013E+02  d E =-.161019E+02  mag=    -0.0000
 curvature:   0.00 expect dE= 0.000E+00 dE for cont linesearch  0.000E+00
 trial: gam= 0.00000 g(F)=  0.482E-58 g(S)=  0.724E+01 ort = 0.000E+00 (trialstep = 0.100E+01)
 search vector abs. value=  0.724E+01
 bond charge predicted
       N       E                     dE             d eps       ncg     rms          rms(c)
DAV:   1    -0.127319919242E+03   -0.11122E+03   -0.21274E+03  5320   0.746E+02    0.725E+01
DAV:   2    -0.254981201510E+02    0.10182E+03   -0.45534E+02  5720   0.196E+02    0.182E+01
DAV:   3    -0.334543761770E+02   -0.79563E+01   -0.24114E+02  5704   0.124E+02    0.307E+01
DAV:   4    -0.179610639962E+02    0.15493E+02   -0.49692E+01  6736   0.874E+01    0.765E+00
DAV:   5    -0.180362660134E+02   -0.75202E-01   -0.19975E+01  5796   0.390E+01    0.103E+01
DAV:   6    -0.168277152850E+02    0.12086E+01   -0.20736E+00  6836   0.156E+01    0.308E+00
DAV:   7    -0.167797144791E+02    0.48001E-01   -0.69977E-01  6120   0.763E+00    0.110E+00
DAV:   8    -0.167776085262E+02    0.21060E-02   -0.17123E-01  6388   0.329E+00    0.889E-01
DAV:   9    -0.167724664835E+02    0.51420E-02   -0.11641E-02  6020   0.927E-01    0.366E-01
DAV:  10    -0.167715061743E+02    0.96031E-03   -0.80930E-03  7308   0.662E-01    0.898E-02
DAV:  11    -0.167716436307E+02   -0.13746E-03   -0.35908E-04  6072   0.122E-01    0.150E-01
DAV:  12    -0.167715154350E+02    0.12820E-03   -0.23895E-04  6628   0.117E-01    0.705E-02
DAV:  13    -0.167714823020E+02    0.33133E-04   -0.18322E-04  7676   0.104E-01    0.289E-03
DAV:  14    -0.167714829003E+02   -0.59826E-06   -0.30312E-06  5640   0.111E-02    0.642E-04
DAV:  15    -0.167714828991E+02    0.12274E-08   -0.96676E-08  6036   0.254E-03
   2 F= -.16771483E+02 E0= -.16771068E+02  d E =-.669585E+00  mag=     0.0000
 trial-energy change:   -0.669585  1 .order   -1.131249   -7.240534    4.978036
 step:   0.5362(harm=  0.5926)  dis= 0.00000  next Energy=   -17.971932 (dE=-0.187E+01)
 bond charge predicted
       N       E                     dE             d eps       ncg     rms          rms(c)
DAV:   1    -0.854564320184E+02   -0.68685E+02   -0.68087E+02  6552   0.284E+02    0.819E+01
DAV:   2    -0.157793012831E+03   -0.72337E+02   -0.16946E+03  8436   0.378E+02    0.845E+01
DAV:   3    -0.360612906044E+02    0.12173E+03   -0.78628E+02  6660   0.189E+02    0.249E+01
DAV:   4    -0.302426522495E+02    0.58186E+01   -0.28283E+01  6152   0.433E+01    0.196E+01
DAV:   5    -0.220589830432E+02    0.81837E+01   -0.74385E+00  6424   0.354E+01    0.130E+01
DAV:   6    -0.238000853348E+02   -0.17411E+01   -0.61872E+01  7536   0.905E+01    0.321E+01
DAV:   7    -0.179011127187E+02    0.58990E+01   -0.31059E+01  6752   0.371E+01    0.392E+00
DAV:   8    -0.181960662615E+02   -0.29495E+00   -0.74750E-01  6528   0.835E+00    0.728E+00
DAV:   9    -0.181965221757E+02   -0.45591E-03   -0.11843E-02  5856   0.750E-01    0.732E+00
DAV:  10    -0.178221399687E+02    0.37438E+00   -0.14321E+00  6768   0.969E+00    0.128E+00
DAV:  11    -0.178341979031E+02   -0.12058E-01   -0.49892E-01  7940   0.606E+00    0.203E+00
DAV:  12    -0.178373882508E+02   -0.31903E-02   -0.10732E-02  5924   0.701E-01    0.207E+00
DAV:  13    -0.178052388127E+02    0.32149E-01   -0.10181E-01  5764   0.387E+00    0.594E-01
DAV:  14    -0.178028168782E+02    0.24219E-02   -0.45621E-03  6564   0.464E-01    0.392E-01
DAV:  15    -0.178008853874E+02    0.19315E-02   -0.97459E-03  7056   0.790E-01    0.354E-02
DAV:  16    -0.178009591677E+02   -0.73780E-04   -0.44964E-04  5984   0.155E-01    0.392E-02
DAV:  17    -0.178009230937E+02    0.36074E-04   -0.39638E-04  6584   0.153E-01    0.383E-02
DAV:  18    -0.178009139003E+02    0.91934E-05   -0.27057E-05  6012   0.566E-02    0.181E-02
DAV:  19    -0.178009101995E+02    0.37008E-05   -0.64143E-06  7336   0.171E-02    0.842E-03
DAV:  20    -0.178009093965E+02    0.80300E-06   -0.41681E-06  8024   0.158E-02    0.767E-04
DAV:  21    -0.178009094379E+02   -0.41323E-07   -0.19713E-07  5980   0.355E-03    0.180E-03
DAV:  22    -0.178009094492E+02   -0.11318E-07   -0.11762E-08  3000   0.120E-03    0.133E-03
DAV:  23    -0.178009094602E+02   -0.11028E-07   -0.14860E-08  2868   0.125E-03    0.747E-04
DAV:  24    -0.178009094622E+02   -0.20414E-08   -0.46003E-09  2868   0.489E-04
   3 F= -.17800909E+02 E0= -.17801209E+02  d E =-.169901E+01  mag=     0.0000
 curvature:  -0.29 expect dE=-0.360E-02 dE for cont linesearch -0.473E-03
 ZBRENT: interpolating
 opt :   0.5283  next Energy=   -17.801340 (dE=-0.170E+01)
 bond charge predicted
       N       E                     dE             d eps       ncg     rms          rms(c)
DAV:   1    -0.178209297166E+02   -0.20020E-01   -0.18363E-01  5796   0.555E+00    0.166E+00
DAV:   2    -0.179641539874E+02   -0.14322E+00   -0.16039E+00  6104   0.134E+01    0.415E+00
DAV:   3    -0.178010583041E+02    0.16310E+00   -0.76470E-01  6004   0.104E+01    0.131E-01
DAV:   4    -0.178015690578E+02   -0.51075E-03   -0.11143E-02  5736   0.623E-01    0.165E-01
DAV:   5    -0.178013856122E+02    0.18345E-03   -0.91660E-04  6596   0.314E-01    0.171E-02
DAV:   6    -0.178013834724E+02    0.21398E-05   -0.14065E-05  5828   0.256E-02    0.241E-03
DAV:   7    -0.178013833118E+02    0.16058E-06   -0.10924E-06  5664   0.759E-03    0.666E-04
DAV:   8    -0.178013832701E+02    0.41709E-07   -0.84285E-08  6008   0.251E-03    0.773E-04
DAV:   9    -0.178013831805E+02    0.89609E-07   -0.22074E-08  3448   0.119E-03    0.102E-04
DAV:  10    -0.178013831789E+02    0.15675E-08   -0.31029E-09  2896   0.455E-04
   4 F= -.17801383E+02 E0= -.17801690E+02  d E =-.169949E+01  mag=    -0.0000
 curvature:  -0.26 expect dE=-0.281E-02 dE for cont linesearch -0.128E-04
 ZBRENT: interpolating
 opt :   0.5266  next Energy=   -17.801399 (dE=-0.170E+01)
 bond charge predicted
       N       E                     dE             d eps       ncg     rms          rms(c)
DAV:   1    -0.178022302733E+02   -0.84709E-03   -0.79053E-03  5812   0.116E+00    0.337E-01
DAV:   2    -0.178081500969E+02   -0.59198E-02   -0.66169E-02  6112   0.272E+00    0.865E-01
DAV:   3    -0.178013917878E+02    0.67583E-02   -0.36540E-02  6040   0.208E+00    0.315E-02
DAV:   4    -0.178014065404E+02   -0.14753E-04   -0.35682E-04  5632   0.105E-01    0.259E-02
DAV:   5    -0.178014021240E+02    0.44164E-05   -0.20819E-05  6628   0.469E-02    0.330E-03
DAV:   6    -0.178014020298E+02    0.94177E-07   -0.42771E-07  5720   0.494E-03    0.395E-04
DAV:   7    -0.178014020128E+02    0.17012E-07   -0.28798E-08  5364   0.111E-03    0.159E-04
DAV:   8    -0.178014020002E+02    0.12627E-07   -0.30439E-09  2960   0.462E-04    0.179E-04
DAV:   9    -0.178014019880E+02    0.12170E-07   -0.96168E-10  2808   0.327E-04    0.274E-05
DAV:  10    -0.178014019885E+02   -0.53342E-09   -0.15178E-10  2752   0.956E-05
   5 F= -.17801402E+02 E0= -.17801710E+02  d E =-.169950E+01  mag=    -0.0000
 curvature:  -0.32 expect dE=-0.338E-02 dE for cont linesearch -0.711E-08
 trial: gam= 0.00152 g(F)=  0.137E-59 g(S)=  0.106E-01 ort =-0.402E-03 (trialstep = 0.905E+00)
 search vector abs. value=  0.106E-01
 bond charge predicted
       N       E                     dE             d eps       ncg     rms          rms(c)
DAV:   1    -0.178385886114E+02   -0.37187E-01   -0.82440E-01  5784   0.776E+00    0.142E+00
DAV:   2    -0.178376319823E+02    0.95663E-03   -0.26693E-01  6064   0.536E+00    0.174E+00
DAV:   3    -0.178143611054E+02    0.23271E-01   -0.19308E-01  5976   0.494E+00    0.714E-01
DAV:   4    -0.178080213340E+02    0.63398E-02   -0.23890E-02  6488   0.133E+00    0.668E-02
DAV:   5    -0.178079802388E+02    0.41095E-04   -0.70751E-04  5848   0.256E-01    0.297E-02
DAV:   6    -0.178079747490E+02    0.54898E-05   -0.53680E-05  6104   0.692E-02    0.726E-03
DAV:   7    -0.178079759540E+02   -0.12050E-05   -0.24410E-06  5908   0.124E-02    0.208E-03
DAV:   8    -0.178079759103E+02    0.43691E-07   -0.25615E-07  6844   0.569E-03    0.919E-04
DAV:   9    -0.178079758902E+02    0.20160E-07   -0.32299E-08  4228   0.213E-03    0.125E-04
DAV:  10    -0.178079758864E+02    0.37849E-08   -0.23492E-09  2880   0.433E-04
   6 F= -.17807976E+02 E0= -.17807854E+02  d E =-.657390E-02  mag=    -0.0000
 trial-energy change:   -0.006574  1 .order   -0.006697   -0.009582   -0.003812
 step:   1.6916(harm=  1.5036)  dis= 0.00000  next Energy=   -17.809551 (dE=-0.815E-02)
 bond charge predicted
       N       E                     dE             d eps       ncg     rms          rms(c)
DAV:   1    -0.178323310931E+02   -0.24355E-01   -0.62331E-01  5784   0.677E+00    0.123E+00
DAV:   2    -0.178333771245E+02   -0.10460E-02   -0.20667E-01  6064   0.475E+00    0.158E+00
DAV:   3    -0.178143928514E+02    0.18984E-01   -0.14848E-01  6008   0.434E+00    0.604E-01
DAV:   4    -0.178098359615E+02    0.45569E-02   -0.16485E-02  6456   0.111E+00    0.611E-02
DAV:   5    -0.178097976369E+02    0.38325E-04   -0.56149E-04  5928   0.235E-01    0.273E-02
DAV:   6    -0.178097931708E+02    0.44660E-05   -0.42021E-05  6144   0.625E-02    0.648E-03
DAV:   7    -0.178097939175E+02   -0.74667E-06   -0.20409E-06  6340   0.107E-02    0.200E-03
DAV:   8    -0.178097938791E+02    0.38410E-07   -0.11347E-07  5856   0.285E-03    0.421E-04
DAV:   9    -0.178097938684E+02    0.10725E-07   -0.96262E-09  3076   0.967E-04    0.954E-05
DAV:  10    -0.178097938663E+02    0.21059E-08   -0.15988E-09  2824   0.405E-04
   7 F= -.17809794E+02 E0= -.17809561E+02  d E =-.839188E-02  mag=     0.0000
 curvature:  -0.68 expect dE=-0.101E-03 dE for cont linesearch -0.139E-04
 ZBRENT: extrapolating
 opt :   1.7896  next Energy=   -17.809817 (dE=-0.841E-02)
 bond charge predicted
       N       E                     dE             d eps       ncg     rms          rms(c)
DAV:   1    -0.178101652386E+02   -0.37137E-03   -0.96918E-03  5800   0.848E-01    0.152E-01
DAV:   2    -0.178101831832E+02   -0.17945E-04   -0.31561E-03  6056   0.603E-01    0.198E-01
DAV:   3    -0.178098867154E+02    0.29647E-03   -0.24018E-03  5992   0.536E-01    0.749E-02
DAV:   4    -0.178098157750E+02    0.70940E-04   -0.25565E-04  6680   0.139E-01    0.743E-03
DAV:   5    -0.178098152143E+02    0.56066E-06   -0.75888E-06  5944   0.276E-02    0.295E-03
DAV:   6    -0.178098151291E+02    0.85246E-07   -0.56007E-07  6032   0.706E-03    0.787E-04
DAV:   7    -0.178098151300E+02   -0.89449E-09   -0.27214E-08  5160   0.121E-03
   8 F= -.17809815E+02 E0= -.17809622E+02  d E =-.841314E-02  mag=     0.0000
 curvature:  -1.11 expect dE=-0.161E-03 dE for cont linesearch -0.430E-06
 trial: gam= 0.02116 g(F)=  0.477E-58 g(S)=  0.145E-03 ort =-0.640E-04 (trialstep = 0.108E+01)
 search vector abs. value=  0.147E-03
 bond charge predicted
       N       E                     dE             d eps       ncg     rms          rms(c)
DAV:   1    -0.178113375035E+02   -0.15224E-02   -0.22150E-02  6048   0.159E+00    0.406E-01
DAV:   2    -0.178184025345E+02   -0.70650E-02   -0.78179E-02  6128   0.301E+00    0.994E-01
DAV:   3    -0.178099665196E+02    0.84360E-02   -0.48372E-02  6040   0.232E+00    0.868E-02
DAV:   4    -0.178098989232E+02    0.67596E-04   -0.63798E-04  5720   0.185E-01    0.244E-02
DAV:   5    -0.178098950462E+02    0.38770E-05   -0.29420E-05  6280   0.559E-02    0.552E-03
DAV:   6    -0.178098947615E+02    0.28469E-06   -0.14806E-06  6400   0.124E-02    0.154E-03
DAV:   7    -0.178098947954E+02   -0.33891E-07   -0.81187E-08  5968   0.224E-03    0.416E-04
DAV:   8    -0.178098948154E+02   -0.20018E-07   -0.42050E-09  2984   0.591E-04    0.854E-05
DAV:   9    -0.178098948211E+02   -0.56771E-08   -0.76465E-10  2780   0.306E-04
   9 F= -.17809895E+02 E0= -.17809717E+02  d E =-.796911E-04  mag=     0.0000
 trial-energy change:   -0.000080  1 .order   -0.000080   -0.000156   -0.000004
 step:   1.1126(harm=  1.1126)  dis= 0.00000  next Energy=   -17.809895 (dE=-0.800E-04)
 bond charge predicted
       N       E                     dE             d eps       ncg     rms          rms(c)
DAV:   1    -0.178098960301E+02   -0.12147E-05   -0.17530E-05  6048   0.446E-02    0.113E-02
DAV:   2    -0.178099013173E+02   -0.52872E-05   -0.60709E-05  6112   0.838E-02    0.276E-02
DAV:   3    -0.178098949248E+02    0.63925E-05   -0.36174E-05  6048   0.650E-02    0.249E-03
DAV:   4    -0.178098948689E+02    0.55896E-07   -0.51123E-07  5716   0.532E-03    0.649E-04
DAV:   5    -0.178098948627E+02    0.62037E-08   -0.20441E-08  3740   0.153E-03
  10 F= -.17809895E+02 E0= -.17809717E+02  d E =-.797327E-04  mag=     0.0000
 curvature:  -0.57 expect dE=-0.402E-05 dE for cont linesearch -0.194E-08
 trial: gam= 0.03866 g(F)=  0.481E-58 g(S)=  0.707E-05 ort = 0.708E-06 (trialstep = 0.109E+01)
 search vector abs. value=  0.734E-05
 reached required accuracy - stopping structural energy minimisation
 writing wavefunctions
