       N       E                     dE             d eps       ncg     rms          rms(c)
DAV:   1     0.358864914675E+03    0.35886E+03   -0.23894E+04  9976   0.152E+03
DAV:   2    -0.110017981145E+02   -0.36987E+03   -0.35801E+03  8196   0.456E+02
DAV:   3    -0.266550175739E+02   -0.15653E+02   -0.15073E+02  9616   0.107E+02
DAV:   4    -0.270314171888E+02   -0.37640E+00   -0.37495E+00  9200   0.160E+01
DAV:   5    -0.270421246553E+02   -0.10707E-01   -0.10706E-01  9392   0.295E+00    0.248E+01
DAV:   6    -0.448439164652E+02   -0.17802E+02   -0.18880E+02  9480   0.178E+02    0.355E+01
DAV:   7    -0.238663276532E+02    0.20978E+02   -0.54026E+01  9512   0.110E+02    0.977E+00
DAV:   8    -0.229570640017E+02    0.90926E+00   -0.73707E+00 11024   0.284E+01    0.230E+00
DAV:   9    -0.229454885148E+02    0.11575E-01   -0.52179E-01  9936   0.832E+00    0.131E+00
DAV:  10    -0.229398303315E+02    0.56582E-02   -0.24622E-02  9912   0.188E+00    0.537E-01
DAV:  11    -0.229369310543E+02    0.28993E-02   -0.29162E-02 11436   0.174E+00    0.364E-01
DAV:  12    -0.229363807415E+02    0.55031E-03   -0.22452E-03  9672   0.429E-01    0.235E-01
DAV:  13    -0.229357854485E+02    0.59529E-03   -0.18899E-03 11568   0.419E-01    0.410E-02
DAV:  14    -0.229357897624E+02   -0.43139E-05   -0.11656E-04 10084   0.894E-02    0.127E-02
DAV:  15    -0.229357878958E+02    0.18666E-05   -0.64959E-06  9852   0.222E-02    0.576E-03
DAV:  16    -0.229357874950E+02    0.40081E-06   -0.20216E-06 11708   0.148E-02    0.291E-03
DAV:  17    -0.229357873036E+02    0.19139E-06   -0.24177E-07 10756   0.476E-03    0.107E-03
DAV:  18    -0.229357872418E+02    0.61828E-07   -0.73225E-08  9168   0.268E-03    0.364E-04
DAV:  19    -0.229357872179E+02    0.23907E-07   -0.80016E-09  4596   0.955E-04    0.701E-05
DAV:  20    -0.229357872126E+02    0.52705E-08   -0.16489E-09  4356   0.325E-04
   1 F= -.22935787E+02 E0= -.22935699E+02  d E =-.229358E+02  mag=     0.0000
       N       E                     dE             d eps       ncg     rms          rms(c)
DAV:   1    -0.158093986906E+03   -0.13516E+03   -0.21457E+03  8168   0.738E+02    0.846E+01
DAV:   2    -0.504332681444E+02    0.10766E+03   -0.73400E+02  9320   0.257E+02    0.446E+01
DAV:   3    -0.508539639004E+02   -0.42070E+00   -0.31840E+02  8988   0.189E+02    0.410E+01
DAV:   4    -0.252977817813E+02    0.25556E+02   -0.80179E+01  9624   0.111E+02    0.524E+00
DAV:   5    -0.251283969498E+02    0.16938E+00   -0.61953E+00  9176   0.269E+01    0.108E+01
DAV:   6    -0.241146109484E+02    0.10138E+01   -0.54419E+00 11208   0.255E+01    0.372E+00
DAV:   7    -0.239544847596E+02    0.16013E+00   -0.57440E-01 10096   0.599E+00    0.880E-01
DAV:   8    -0.239437869615E+02    0.10698E-01   -0.41881E-02  9584   0.211E+00    0.173E-01
DAV:   9    -0.239435463686E+02    0.24059E-03   -0.21701E-03  9000   0.497E-01    0.349E-02
DAV:  10    -0.239435755995E+02   -0.29231E-04   -0.13971E-04  9392   0.105E-01    0.119E-02
DAV:  11    -0.239435726101E+02    0.29894E-05   -0.16593E-05  9192   0.492E-02    0.535E-03
DAV:  12    -0.239435724973E+02    0.11287E-06   -0.27972E-06 10384   0.115E-02    0.194E-03
DAV:  13    -0.239435723996E+02    0.97674E-07   -0.40048E-07  9184   0.476E-03    0.916E-04
DAV:  14    -0.239435723512E+02    0.48381E-07   -0.35049E-08  7508   0.160E-03    0.138E-04
DAV:  15    -0.239435723424E+02    0.87830E-08   -0.58385E-09  4616   0.604E-04
   2 F= -.23943572E+02 E0= -.23943673E+02  d E =-.100779E+01  mag=     0.0000
       N       E                     dE             d eps       ncg     rms          rms(c)
DAV:   1    -0.736414379684E+02   -0.49698E+02   -0.47308E+02  9136   0.258E+02    0.771E+01
DAV:   2    -0.156211146181E+03   -0.82570E+02   -0.14950E+03  9248   0.464E+02    0.649E+01
DAV:   3    -0.438794538392E+02    0.11233E+03   -0.37663E+02  9224   0.193E+02    0.274E+01
DAV:   4    -0.377544872089E+02    0.61250E+01   -0.10398E+01  8912   0.305E+01    0.234E+01
DAV:   5    -0.268598359473E+02    0.10895E+02   -0.13957E+01  9992   0.464E+01    0.103E+01
DAV:   6    -0.288785552137E+02   -0.20187E+01   -0.50348E+01 11176   0.612E+01    0.233E+01
DAV:   7    -0.258903949349E+02    0.29882E+01   -0.49623E+00 10520   0.175E+01    0.130E+01
DAV:   8    -0.249984140975E+02    0.89198E+00   -0.10239E+00 11680   0.845E+00    0.739E+00
DAV:   9    -0.246078667698E+02    0.39055E+00   -0.57754E-01 11780   0.689E+00    0.290E+00
DAV:  10    -0.245371234356E+02    0.70743E-01   -0.17984E-01 12324   0.395E+00    0.501E-01
DAV:  11    -0.245359546118E+02    0.11688E-02   -0.15929E-02 12248   0.114E+00    0.180E-01
DAV:  12    -0.245368968252E+02   -0.94221E-03   -0.12427E-03 11124   0.323E-01    0.341E-01
DAV:  13    -0.245357166424E+02    0.11802E-02   -0.27724E-03 10384   0.554E-01    0.542E-02
DAV:  14    -0.245357214907E+02   -0.48483E-05   -0.74790E-05  8776   0.617E-02    0.536E-02
DAV:  15    -0.245356890149E+02    0.32476E-04   -0.51034E-05 11252   0.642E-02    0.174E-02
DAV:  16    -0.245356871676E+02    0.18473E-05   -0.34622E-06  9372   0.115E-02    0.136E-02
DAV:  17    -0.245356856395E+02    0.15281E-05   -0.10094E-06 12400   0.817E-03    0.880E-03
DAV:  18    -0.245356844670E+02    0.11725E-05   -0.17757E-06 11536   0.113E-02    0.254E-03
DAV:  19    -0.245356843849E+02    0.82125E-07   -0.15318E-07  9672   0.277E-03    0.168E-03
DAV:  20    -0.245356843107E+02    0.74204E-07   -0.70563E-08  8736   0.179E-03    0.675E-04
DAV:  21    -0.245356842805E+02    0.30211E-07   -0.46781E-08  8280   0.179E-03    0.406E-04
DAV:  22    -0.245356842965E+02   -0.16033E-07   -0.11034E-08  4360   0.132E-03    0.826E-05
DAV:  23    -0.245356842941E+02    0.24265E-08   -0.18436E-09  4260   0.512E-04
   3 F= -.24535684E+02 E0= -.24535753E+02  d E =-.159990E+01  mag=     0.0000
       N       E                     dE             d eps       ncg     rms          rms(c)
DAV:   1    -0.256338672050E+02   -0.10982E+01   -0.28282E+01  9640   0.161E+02    0.135E+01
DAV:   2    -0.306901051856E+02   -0.50562E+01   -0.51276E+01  9616   0.864E+01    0.198E+01
DAV:   3    -0.248337827001E+02    0.58563E+01   -0.16982E+01  9472   0.607E+01    0.230E+00
DAV:   4    -0.248126784885E+02    0.21104E-01   -0.12785E+00 10664   0.818E+00    0.236E+00
DAV:   5    -0.247719283510E+02    0.40750E-01   -0.30420E-01  9136   0.653E+00    0.682E-01
DAV:   6    -0.247677181892E+02    0.42102E-02   -0.37121E-02  9256   0.237E+00    0.291E-01
DAV:   7    -0.247669191597E+02    0.79903E-03   -0.39632E-03 11248   0.695E-01    0.310E-02
DAV:   8    -0.247669370459E+02   -0.17886E-04   -0.16102E-04  8976   0.965E-02    0.464E-02
DAV:   9    -0.247669134648E+02    0.23581E-04   -0.62462E-05 11216   0.792E-02    0.821E-03
DAV:  10    -0.247669128164E+02    0.64839E-06   -0.65212E-06 11264   0.205E-02    0.123E-03
DAV:  11    -0.247669127217E+02    0.94726E-07   -0.16930E-07  9024   0.339E-03    0.891E-04
DAV:  12    -0.247669127101E+02    0.11551E-07   -0.37850E-08  6744   0.216E-03    0.118E-04
DAV:  13    -0.247669126975E+02    0.12656E-07   -0.36508E-09  4600   0.584E-04    0.546E-05
DAV:  14    -0.247669126992E+02   -0.17108E-08   -0.14425E-09  4452   0.429E-04
   4 F= -.24766913E+02 E0= -.24766976E+02  d E =-.231228E+00  mag=    -0.0000
       N       E                     dE             d eps       ncg     rms          rms(c)
DAV:   1    -0.253414215742E+02   -0.57451E+00   -0.17464E+01  9848   0.126E+02    0.103E+01
DAV:   2    -0.280374897320E+02   -0.26961E+01   -0.28551E+01  9632   0.662E+01    0.152E+01
DAV:   3    -0.248457197418E+02    0.31918E+01   -0.10244E+01  9448   0.465E+01    0.162E+00
DAV:   4    -0.248358831529E+02    0.98366E-02   -0.54433E-01  9896   0.487E+00    0.149E+00
DAV:   5    -0.248178274929E+02    0.18056E-01   -0.10471E-01  9216   0.387E+00    0.264E-01
DAV:   6    -0.248173269181E+02    0.50057E-03   -0.81018E-03  9192   0.114E+00    0.153E-01
DAV:   7    -0.248171336313E+02    0.19329E-03   -0.13050E-03 10536   0.426E-01    0.329E-02
DAV:   8    -0.248171225352E+02    0.11096E-04   -0.60397E-05  9576   0.701E-02    0.169E-02
DAV:   9    -0.248171190815E+02    0.34537E-05   -0.14314E-05 12552   0.335E-02    0.118E-03
DAV:  10    -0.248171190442E+02    0.37315E-07   -0.10777E-06  8792   0.677E-03    0.639E-04
DAV:  11    -0.248171190115E+02    0.32713E-07   -0.32153E-08  7824   0.153E-03    0.233E-04
DAV:  12    -0.248171190033E+02    0.81382E-08   -0.46470E-09  4760   0.621E-04
   5 F= -.24817119E+02 E0= -.24817165E+02  d E =-.281435E+00  mag=    -0.0000
       N       E                     dE             d eps       ncg     rms          rms(c)
DAV:   1    -0.241199967892E+02    0.69712E+00   -0.53939E+01 10208   0.274E+02    0.947E+00
DAV:   2    -0.273653849617E+02   -0.32454E+01   -0.37765E+01  8984   0.677E+01    0.160E+01
DAV:   3    -0.250205559766E+02    0.23448E+01   -0.12712E+01  9640   0.411E+01    0.394E+00
DAV:   4    -0.249227973611E+02    0.97759E-01   -0.41258E-01  9744   0.762E+00    0.179E+00
DAV:   5    -0.248943622549E+02    0.28435E-01   -0.66850E-02 11032   0.330E+00    0.363E-01
DAV:   6    -0.248932486432E+02    0.11136E-02   -0.42675E-03  9112   0.719E-01    0.882E-02
DAV:   7    -0.248932442607E+02    0.43825E-05   -0.34254E-04  9256   0.284E-01    0.292E-02
DAV:   8    -0.248932494782E+02   -0.52175E-05   -0.19314E-05  9280   0.545E-02    0.395E-03
DAV:   9    -0.248932493769E+02    0.10137E-06   -0.16504E-06  9492   0.188E-02    0.146E-03
DAV:  10    -0.248932493500E+02    0.26829E-07   -0.11988E-07  8940   0.333E-03    0.103E-03
DAV:  11    -0.248932493544E+02   -0.44065E-08   -0.42450E-08  7252   0.254E-03
   6 F= -.24893249E+02 E0= -.24893083E+02  d E =-.761304E-01  mag=    -0.0000
       N       E                     dE             d eps       ncg     rms          rms(c)
DAV:   1    -0.244804969953E+02    0.41275E+00   -0.29129E+01 10168   0.206E+02    0.723E+00
DAV:   2    -0.264181135839E+02   -0.19376E+01   -0.21245E+01  8952   0.516E+01    0.125E+01
DAV:   3    -0.249691382789E+02    0.14490E+01   -0.75425E+00  9424   0.319E+01    0.278E+00
DAV:   4    -0.249231633323E+02    0.45975E-01   -0.21591E-01  9480   0.533E+00    0.132E+00
DAV:   5    -0.249077912633E+02    0.15372E-01   -0.39196E-02 10768   0.255E+00    0.234E-01
DAV:   6    -0.249073064119E+02    0.48485E-03   -0.23711E-03  8936   0.547E-01    0.840E-02
DAV:   7    -0.249072861079E+02    0.20304E-04   -0.24277E-04  9800   0.223E-01    0.228E-02
DAV:   8    -0.249072880260E+02   -0.19181E-05   -0.17609E-05  8952   0.574E-02    0.286E-03
DAV:   9    -0.249072880870E+02   -0.61034E-07   -0.12639E-06  9132   0.165E-02    0.107E-03
DAV:  10    -0.249072880394E+02    0.47554E-07   -0.10996E-07  9540   0.336E-03    0.926E-04
DAV:  11    -0.249072880415E+02   -0.21146E-08   -0.38160E-08  7180   0.244E-03
   7 F= -.24907288E+02 E0= -.24907248E+02  d E =-.901690E-01  mag=    -0.0000
       N       E                     dE             d eps       ncg     rms          rms(c)
DAV:   1    -0.246748780326E+02    0.23241E+00   -0.47923E+01 12128   0.250E+02    0.105E+01
DAV:   2    -0.279422428751E+02   -0.32674E+01   -0.33582E+01  9160   0.704E+01    0.145E+01
DAV:   3    -0.250228442592E+02    0.29194E+01   -0.94528E+00  9288   0.457E+01    0.226E+00
DAV:   4    -0.249627566739E+02    0.60088E-01   -0.48518E-01  8968   0.465E+00    0.131E+00
DAV:   5    -0.249485832438E+02    0.14173E-01   -0.83234E-02  9888   0.349E+00    0.299E-01
DAV:   6    -0.249481991315E+02    0.38411E-03   -0.10178E-02  9168   0.133E+00    0.194E-01
DAV:   7    -0.249479814890E+02    0.21764E-03   -0.27505E-03 10304   0.627E-01    0.875E-02
DAV:   8    -0.249478988462E+02    0.82643E-04   -0.16704E-04 10636   0.138E-01    0.454E-02
DAV:   9    -0.249478748025E+02    0.24044E-04   -0.10413E-04 12444   0.111E-01    0.542E-03
DAV:  10    -0.249478748795E+02   -0.77001E-07   -0.66983E-06  9188   0.258E-02    0.140E-03
DAV:  11    -0.249478747132E+02    0.16632E-06   -0.37338E-07  9800   0.600E-03    0.762E-04
DAV:  12    -0.249478747056E+02    0.76334E-08   -0.55986E-08  9732   0.215E-03
   8 F= -.24947875E+02 E0= -.24947790E+02  d E =-.405867E-01  mag=     0.0000
       N       E                     dE             d eps       ncg     rms          rms(c)
DAV:   1    -0.249478595205E+02    0.15193E-04   -0.75008E-04  9380   0.106E+00    0.395E-02
DAV:   2    -0.249479135477E+02   -0.54027E-04   -0.56674E-04  9048   0.281E-01    0.573E-02
DAV:   3    -0.249478765880E+02    0.36960E-04   -0.15879E-04  9264   0.168E-01    0.134E-02
DAV:   4    -0.249478746079E+02    0.19800E-05   -0.58542E-06  9380   0.301E-02    0.395E-03
DAV:   5    -0.249478742916E+02    0.31638E-06   -0.67656E-07 11144   0.740E-03    0.706E-04
DAV:   6    -0.249478742664E+02    0.25167E-07   -0.60741E-08  8660   0.292E-03    0.462E-04
DAV:   7    -0.249478742543E+02    0.12052E-07   -0.51113E-09  4464   0.963E-04    0.100E-04
DAV:   8    -0.249478742481E+02    0.62228E-08   -0.12706E-09  4240   0.488E-04
   9 F= -.24947874E+02 E0= -.24947792E+02  d E =-.405862E-01  mag=    -0.0000
       N       E                     dE             d eps       ncg     rms          rms(c)
DAV:   1    -0.251754702344E+02   -0.22760E+00   -0.81407E+00  9920   0.810E+01    0.604E+00
DAV:   2    -0.261015890342E+02   -0.92612E+00   -0.10220E+01  9672   0.405E+01    0.109E+01
DAV:   3    -0.249987996037E+02    0.11028E+01   -0.50327E+00  9584   0.267E+01    0.201E+00
DAV:   4    -0.249570846860E+02    0.41715E-01   -0.19513E-01  9488   0.553E+00    0.281E-01
DAV:   5    -0.249563375083E+02    0.74718E-03   -0.10189E-02  9552   0.114E+00    0.829E-02
DAV:   6    -0.249562998950E+02    0.37613E-04   -0.51099E-04  9112   0.248E-01    0.621E-02
DAV:   7    -0.249562858498E+02    0.14045E-04   -0.14615E-04 10680   0.134E-01    0.169E-02
DAV:   8    -0.249562860706E+02   -0.22087E-06   -0.14014E-05  8888   0.556E-02    0.245E-03
DAV:   9    -0.249562862582E+02   -0.18757E-06   -0.69717E-07  9176   0.121E-02    0.156E-03
DAV:  10    -0.249562863320E+02   -0.73805E-07   -0.61677E-08  9064   0.252E-03    0.465E-04
DAV:  11    -0.249562863457E+02   -0.13666E-07   -0.79371E-09  4688   0.108E-03    0.667E-05
DAV:  12    -0.249562863489E+02   -0.32478E-08   -0.19102E-09  4520   0.451E-04
  10 F= -.24956286E+02 E0= -.24956166E+02  d E =-.841210E-02  mag=     0.0000
       N       E                     dE             d eps       ncg     rms          rms(c)
DAV:   1    -0.249592201527E+02   -0.29338E-02   -0.10444E-01  9568   0.933E+00    0.732E-01
DAV:   2    -0.249737039573E+02   -0.14484E-01   -0.14601E-01  9504   0.490E+00    0.125E+00
DAV:   3    -0.249568006404E+02    0.16903E-01   -0.64379E-02  9312   0.335E+00    0.185E-01
DAV:   4    -0.249564194521E+02    0.38119E-03   -0.18298E-03  8712   0.465E-01    0.244E-02
DAV:   5    -0.249564233308E+02   -0.38787E-05   -0.12290E-04  8928   0.123E-01    0.899E-03
DAV:   6    -0.249564229700E+02    0.36083E-06   -0.11433E-05  9024   0.464E-02    0.907E-03
DAV:   7    -0.249564222697E+02    0.70026E-06   -0.22286E-06  9232   0.192E-02    0.184E-03
DAV:   8    -0.249564221372E+02    0.13245E-06   -0.18801E-07 10096   0.357E-03    0.431E-04
DAV:   9    -0.249564221082E+02    0.29011E-07   -0.81498E-09  5244   0.814E-04    0.198E-04
DAV:  10    -0.249564220953E+02    0.12899E-07   -0.17330E-09  4504   0.454E-04    0.228E-05
DAV:  11    -0.249564220949E+02    0.44292E-09   -0.46675E-10  4264   0.231E-04
  11 F= -.24956422E+02 E0= -.24956303E+02  d E =-.854785E-02  mag=     0.0000
       N       E                     dE             d eps       ncg     rms          rms(c)
DAV:   1    -0.249615030358E+02   -0.50809E-02   -0.68622E-01 11096   0.247E+01    0.129E+00
DAV:   2    -0.249969232133E+02   -0.35420E-01   -0.42211E-01  9120   0.805E+00    0.180E+00
DAV:   3    -0.249614467684E+02    0.35476E-01   -0.14177E-01  9352   0.498E+00    0.461E-01
DAV:   4    -0.249585817389E+02    0.28650E-02   -0.91282E-03  9648   0.110E+00    0.449E-02
DAV:   5    -0.249585649681E+02    0.16771E-04   -0.70195E-04  8736   0.292E-01    0.243E-02
DAV:   6    -0.249585576766E+02    0.72915E-05   -0.45189E-05  9608   0.581E-02    0.128E-02
DAV:   7    -0.249585577665E+02   -0.89886E-07   -0.76693E-06 10184   0.265E-02    0.339E-03
DAV:   8    -0.249585576807E+02    0.85791E-07   -0.91439E-07  9528   0.119E-02    0.106E-03
DAV:   9    -0.249585575972E+02    0.83523E-07   -0.13565E-07  9648   0.489E-03    0.453E-04
DAV:  10    -0.249585575698E+02    0.27335E-07   -0.84162E-09  4760   0.121E-03    0.450E-05
DAV:  11    -0.249585575696E+02    0.20827E-09   -0.16529E-09  4376   0.406E-04
  12 F= -.24958558E+02 E0= -.24958343E+02  d E =-.213547E-02  mag=     0.0000
       N       E                     dE             d eps       ncg     rms          rms(c)
DAV:   1    -0.249595604620E+02   -0.10029E-02   -0.16898E-01 11072   0.123E+01    0.637E-01
DAV:   2    -0.249682428110E+02   -0.86823E-02   -0.10427E-01  9104   0.401E+00    0.897E-01
DAV:   3    -0.249595449505E+02    0.86979E-02   -0.35372E-02  9328   0.246E+00    0.231E-01
DAV:   4    -0.249588331522E+02    0.71180E-03   -0.22917E-03  9680   0.568E-01    0.242E-02
DAV:   5    -0.249588279484E+02    0.52038E-05   -0.17780E-04  8768   0.151E-01    0.122E-02
DAV:   6    -0.249588261886E+02    0.17598E-05   -0.11034E-05  9528   0.282E-02    0.637E-03
DAV:   7    -0.249588261608E+02    0.27801E-07   -0.19105E-06 10032   0.131E-02    0.165E-03
DAV:   8    -0.249588261072E+02    0.53581E-07   -0.22579E-07  9600   0.587E-03    0.496E-04
DAV:   9    -0.249588260694E+02    0.37824E-07   -0.31604E-08  7656   0.236E-03    0.214E-04
DAV:  10    -0.249588260589E+02    0.10484E-07   -0.24460E-09  4444   0.630E-04    0.228E-05
DAV:  11    -0.249588260563E+02    0.25475E-08   -0.54397E-10  4300   0.215E-04
  13 F= -.24958826E+02 E0= -.24958619E+02  d E =-.240396E-02  mag=     0.0000
       N       E                     dE             d eps       ncg     rms          rms(c)
DAV:   1    -0.250302365564E+02   -0.71410E-01   -0.88968E-01  9040   0.134E+01    0.275E+00
DAV:   2    -0.252261585022E+02   -0.19592E+00   -0.19976E+00  9528   0.178E+01    0.512E+00
DAV:   3    -0.249626916279E+02    0.26347E+00   -0.10467E+00  9536   0.125E+01    0.566E-01
DAV:   4    -0.249601596392E+02    0.25320E-02   -0.22464E-02  8424   0.124E+00    0.135E-01
DAV:   5    -0.249600779325E+02    0.81707E-04   -0.11025E-03  9560   0.353E-01    0.326E-02
DAV:   6    -0.249600713497E+02    0.65828E-05   -0.45602E-05  8840   0.883E-02    0.173E-02
DAV:   7    -0.249600714544E+02   -0.10469E-06   -0.65787E-06 11080   0.225E-02    0.206E-03
DAV:   8    -0.249600716758E+02   -0.22138E-06   -0.57466E-07  8968   0.688E-03    0.730E-04
DAV:   9    -0.249600717408E+02   -0.64997E-07   -0.32391E-08  8364   0.174E-03    0.385E-04
DAV:  10    -0.249600717643E+02   -0.23534E-07   -0.46644E-09  4628   0.935E-04    0.689E-05
DAV:  11    -0.249600717687E+02   -0.44356E-08   -0.15695E-09  4512   0.297E-04
  14 F= -.24960072E+02 E0= -.24960134E+02  d E =-.124571E-02  mag=    -0.0000
       N       E                     dE             d eps       ncg     rms          rms(c)
DAV:   1    -0.249605527113E+02   -0.48095E-03   -0.59652E-03  9032   0.110E+00    0.227E-01
DAV:   2    -0.249618657865E+02   -0.13131E-02   -0.13436E-02  9432   0.146E+00    0.410E-01
DAV:   3    -0.249600947383E+02    0.17710E-02   -0.66951E-03  9376   0.104E+00    0.430E-02
DAV:   4    -0.249600808013E+02    0.13937E-04   -0.15243E-04  8456   0.949E-02    0.141E-02
DAV:   5    -0.249600794311E+02    0.13702E-05   -0.90532E-06  9508   0.363E-02    0.297E-03
DAV:   6    -0.249600794830E+02   -0.51888E-07   -0.39956E-07  9784   0.661E-03    0.921E-04
DAV:   7    -0.249600795506E+02   -0.67527E-07   -0.23477E-08  7212   0.127E-03    0.203E-04
DAV:   8    -0.249600795729E+02   -0.22344E-07   -0.29666E-09  4592   0.623E-04    0.504E-05
DAV:   9    -0.249600795816E+02   -0.86984E-08   -0.80462E-10  4304   0.308E-04
  15 F= -.24960080E+02 E0= -.24960167E+02  d E =-.125353E-02  mag=    -0.0000
       N       E                     dE             d eps       ncg     rms          rms(c)
DAV:   1    -0.249590185786E+02    0.10610E-02   -0.35589E-01 11368   0.185E+01    0.696E-01
DAV:   2    -0.249666502226E+02   -0.76316E-02   -0.11942E-01  8776   0.400E+00    0.692E-01
DAV:   3    -0.249620470129E+02    0.46032E-02   -0.25275E-02  9424   0.207E+00    0.344E-01
DAV:   4    -0.249604318326E+02    0.16152E-02   -0.49346E-03 10044   0.866E-01    0.525E-02
DAV:   5    -0.249604123696E+02    0.19463E-04   -0.35018E-04  8716   0.239E-01    0.155E-02
DAV:   6    -0.249604106192E+02    0.17504E-05   -0.25138E-05  9664   0.466E-02    0.760E-03
DAV:   7    -0.249604106098E+02    0.93705E-08   -0.38071E-06  9416   0.212E-02    0.281E-03
DAV:   8    -0.249604106173E+02   -0.74488E-08   -0.42506E-07  9236   0.931E-03    0.584E-04
DAV:   9    -0.249604105869E+02    0.30424E-07   -0.40085E-08  8532   0.261E-03    0.142E-04
DAV:  10    -0.249604105802E+02    0.66293E-08   -0.29504E-09  4564   0.510E-04
  16 F= -.24960411E+02 E0= -.24960579E+02  d E =-.330999E-03  mag=     0.0000
       N       E                     dE             d eps       ncg     rms          rms(c)
DAV:   1    -0.249603525089E+02    0.58078E-04   -0.20329E-02 10984   0.447E+00    0.167E-01
DAV:   2    -0.249608141191E+02   -0.46161E-03   -0.71494E-03  8780   0.981E-01    0.167E-01
DAV:   3    -0.249605550333E+02    0.25909E-03   -0.14731E-03  9476   0.496E-01    0.836E-02
DAV:   4    -0.249604601576E+02    0.94876E-04   -0.29540E-04 10016   0.219E-01    0.139E-02
DAV:   5    -0.249604587313E+02    0.14263E-05   -0.22660E-05  8724   0.617E-02    0.376E-03
DAV:   6    -0.249604585724E+02    0.15893E-06   -0.15363E-06  9704   0.114E-02    0.189E-03
DAV:   7    -0.249604585721E+02    0.33924E-09   -0.23296E-07  9516   0.524E-03    0.699E-04
DAV:   8    -0.249604585777E+02   -0.56280E-08   -0.25771E-08  6580   0.236E-03
  17 F= -.24960459E+02 E0= -.24960629E+02  d E =-.378996E-03  mag=    -0.0000
       N       E                     dE             d eps       ncg     rms          rms(c)
DAV:   1    -0.249576844830E+02    0.27741E-02   -0.10573E-01 12040   0.132E+01    0.168E-01
DAV:   2    -0.249612037687E+02   -0.35193E-02   -0.36021E-02  8684   0.181E+00    0.242E-01
DAV:   3    -0.249606195897E+02    0.58418E-03   -0.31798E-03  9256   0.754E-01    0.582E-02
DAV:   4    -0.249605903661E+02    0.29224E-04   -0.11436E-04 10232   0.125E-01    0.298E-02
DAV:   5    -0.249605785563E+02    0.11810E-04   -0.20400E-05 11096   0.760E-02    0.519E-03
DAV:   6    -0.249605788126E+02   -0.25636E-06   -0.43036E-06  9724   0.207E-02    0.219E-03
DAV:   7    -0.249605788225E+02   -0.99099E-08   -0.16643E-07  9816   0.624E-03    0.730E-04
DAV:   8    -0.249605788634E+02   -0.40878E-07   -0.14697E-08  4808   0.135E-03    0.112E-04
DAV:   9    -0.249605788678E+02   -0.43992E-08   -0.30902E-09  4396   0.814E-04
  18 F= -.24960579E+02 E0= -.24960750E+02  d E =-.120290E-03  mag=    -0.0000
       N       E                     dE             d eps       ncg     rms          rms(c)
DAV:   1    -0.249595166793E+02    0.10622E-02   -0.39103E-02 12000   0.805E+00    0.103E-01
DAV:   2    -0.249608299679E+02   -0.13133E-02   -0.13448E-02  8680   0.111E+00    0.148E-01
DAV:   3    -0.249606116420E+02    0.21833E-03   -0.11880E-03  9248   0.462E-01    0.354E-02
DAV:   4    -0.249606010743E+02    0.10568E-04   -0.42435E-05 10264   0.757E-02    0.182E-02
DAV:   5    -0.249605968202E+02    0.42541E-05   -0.75945E-06 11136   0.469E-02    0.316E-03
DAV:   6    -0.249605969614E+02   -0.14121E-06   -0.16156E-06  9716   0.128E-02    0.135E-03
DAV:   7    -0.249605969680E+02   -0.66448E-08   -0.64092E-08  8952   0.392E-03
  19 F= -.24960597E+02 E0= -.24960765E+02  d E =-.138390E-03  mag=    -0.0000
       N       E                     dE             d eps       ncg     rms          rms(c)
DAV:   1    -0.249608012410E+02   -0.20428E-03   -0.28704E-02  9176   0.635E+00    0.360E-01
DAV:   2    -0.249647496864E+02   -0.39484E-02   -0.39185E-02  9384   0.247E+00    0.610E-01
DAV:   3    -0.249606582929E+02    0.40914E-02   -0.16558E-02  9304   0.168E+00    0.793E-02
DAV:   4    -0.249606316497E+02    0.26643E-04   -0.34482E-04  8632   0.167E-01    0.391E-02
DAV:   5    -0.249606168846E+02    0.14765E-04   -0.50253E-05 10016   0.863E-02    0.759E-03
DAV:   6    -0.249606160228E+02    0.86183E-06   -0.44934E-06  8816   0.267E-02    0.326E-03
DAV:   7    -0.249606157615E+02    0.26131E-06   -0.31101E-07  9624   0.450E-03    0.603E-04
DAV:   8    -0.249606157187E+02    0.42849E-07   -0.29122E-08  8204   0.162E-03    0.134E-04
DAV:   9    -0.249606157130E+02    0.56771E-08   -0.19505E-09  4416   0.482E-04
  20 F= -.24960616E+02 E0= -.24960777E+02  d E =-.187449E-04  mag=    -0.0000
       N       E                     dE             d eps       ncg     rms          rms(c)
DAV:   1    -0.249606265746E+02   -0.10856E-04   -0.13969E-03  9176   0.140E+00    0.791E-02
DAV:   2    -0.249608146129E+02   -0.18804E-03   -0.19008E-03  9360   0.543E-01    0.135E-01
DAV:   3    -0.249606185947E+02    0.19602E-03   -0.80810E-04  9288   0.369E-01    0.178E-02
DAV:   4    -0.249606174698E+02    0.11248E-05   -0.16825E-05  8640   0.375E-02    0.863E-03
DAV:   5    -0.249606170386E+02    0.43127E-06   -0.24162E-06 10032   0.189E-02    0.164E-03
DAV:   6    -0.249606170737E+02   -0.35097E-07   -0.21644E-07  8824   0.585E-03    0.723E-04
DAV:   7    -0.249606171159E+02   -0.42197E-07   -0.13147E-08  4864   0.101E-03    0.123E-04
DAV:   8    -0.249606171252E+02   -0.93596E-08   -0.20282E-09  4208   0.457E-04
  21 F= -.24960617E+02 E0= -.24960780E+02  d E =-.201572E-04  mag=     0.0000
       N       E                     dE             d eps       ncg     rms          rms(c)
DAV:   1    -0.249605398283E+02    0.77288E-04   -0.96571E-03  9192   0.376E+00    0.172E-01
DAV:   2    -0.249615511281E+02   -0.10113E-02   -0.10346E-02  9096   0.122E+00    0.287E-01
DAV:   3    -0.249606597281E+02    0.89140E-03   -0.37197E-03  9232   0.790E-01    0.467E-02
DAV:   4    -0.249606433269E+02    0.16401E-04   -0.92225E-05  9104   0.107E-01    0.169E-02
DAV:   5    -0.249606405863E+02    0.27406E-05   -0.95775E-06 11008   0.343E-02    0.286E-03
DAV:   6    -0.249606406839E+02   -0.97648E-07   -0.16245E-06  9240   0.153E-02    0.298E-03
DAV:   7    -0.249606406574E+02    0.26575E-07   -0.32143E-07  8952   0.746E-03    0.580E-04
DAV:   8    -0.249606407025E+02   -0.45138E-07   -0.13874E-08  4608   0.155E-03    0.746E-05
DAV:   9    -0.249606407086E+02   -0.61282E-08   -0.20720E-09  4264   0.462E-04
  22 F= -.24960641E+02 E0= -.24960796E+02  d E =-.235834E-04  mag=     0.0000
       N       E                     dE             d eps       ncg     rms          rms(c)
DAV:   1    -0.249606106679E+02    0.30035E-04   -0.32487E-03  9184   0.218E+00    0.997E-02
DAV:   2    -0.249609497683E+02   -0.33910E-03   -0.34785E-03  9096   0.707E-01    0.166E-01
DAV:   3    -0.249606505127E+02    0.29926E-03   -0.12492E-03  9232   0.459E-01    0.270E-02
DAV:   4    -0.249606451828E+02    0.53298E-05   -0.30936E-05  9096   0.616E-02    0.983E-03
DAV:   5    -0.249606443869E+02    0.79594E-06   -0.32363E-06 11016   0.199E-02    0.166E-03
DAV:   6    -0.249606444516E+02   -0.64702E-07   -0.55182E-07  9288   0.894E-03    0.174E-03
DAV:   7    -0.249606444498E+02    0.17508E-08   -0.10896E-07  8672   0.435E-03    0.337E-04
DAV:   8    -0.249606444760E+02   -0.26200E-07   -0.46806E-09  4352   0.894E-04    0.432E-05
DAV:   9    -0.249606444796E+02   -0.35297E-08   -0.69841E-10  4160   0.270E-04
  23 F= -.24960644E+02 E0= -.24960794E+02  d E =-.273543E-04  mag=     0.0000
       N       E                     dE             d eps       ncg     rms          rms(c)
DAV:   1    -0.249606363015E+02    0.81746E-05   -0.43290E-03 10376   0.206E+00    0.801E-02
DAV:   2    -0.249607908939E+02   -0.15459E-03   -0.20963E-03  8928   0.534E-01    0.107E-01
DAV:   3    -0.249606794879E+02    0.11141E-03   -0.54550E-04  9128   0.308E-01    0.365E-02
DAV:   4    -0.249606609900E+02    0.18498E-04   -0.49299E-05  9448   0.887E-02    0.539E-03
DAV:   5    -0.249606608878E+02    0.10224E-06   -0.42659E-06  8896   0.207E-02    0.140E-03
DAV:   6    -0.249606609021E+02   -0.14285E-07   -0.24886E-07  9328   0.595E-03    0.690E-04
DAV:   7    -0.249606609136E+02   -0.11518E-07   -0.17267E-08  5832   0.136E-03    0.266E-04
DAV:   8    -0.249606609230E+02   -0.94451E-08   -0.39855E-09  4352   0.490E-04
  24 F= -.24960661E+02 E0= -.24960813E+02  d E =-.164435E-04  mag=    -0.0000
       N       E                     dE             d eps       ncg     rms          rms(c)
DAV:   1    -0.249606431904E+02    0.17723E-04   -0.44788E-03 10360   0.210E+00    0.814E-02
DAV:   2    -0.249608032329E+02   -0.16004E-03   -0.21701E-03  8936   0.543E-01    0.108E-01
DAV:   3    -0.249606884043E+02    0.11483E-03   -0.56285E-04  9120   0.313E-01    0.371E-02
DAV:   4    -0.249606692787E+02    0.19126E-04   -0.50975E-05  9440   0.902E-02    0.548E-03
DAV:   5    -0.249606691719E+02    0.10686E-06   -0.44090E-06  8896   0.211E-02    0.143E-03
DAV:   6    -0.249606691862E+02   -0.14360E-07   -0.25748E-07  9312   0.606E-03    0.701E-04
DAV:   7    -0.249606691980E+02   -0.11793E-07   -0.18003E-08  5904   0.139E-03    0.270E-04
DAV:   8    -0.249606692074E+02   -0.93896E-08   -0.40569E-09  4376   0.498E-04
  25 F= -.24960669E+02 E0= -.24960823E+02  d E =-.247279E-04  mag=     0.0000
       N       E                     dE             d eps       ncg     rms          rms(c)
DAV:   1    -0.249606109049E+02    0.58293E-04   -0.28185E-03  9840   0.188E+00    0.587E-02
DAV:   2    -0.249607211963E+02   -0.11029E-03   -0.13990E-03  8728   0.408E-01    0.620E-02
DAV:   3    -0.249606856797E+02    0.35517E-04   -0.21759E-04  9224   0.195E-01    0.300E-02
DAV:   4    -0.249606737078E+02    0.11972E-04   -0.35395E-05 10400   0.766E-02    0.653E-03
DAV:   5    -0.249606733620E+02    0.34579E-06   -0.32458E-06  9064   0.205E-02    0.134E-03
DAV:   6    -0.249606733360E+02    0.25984E-07   -0.28680E-07  9128   0.576E-03    0.675E-04
DAV:   7    -0.249606733379E+02   -0.18963E-08   -0.22863E-08  6728   0.142E-03
  26 F= -.24960673E+02 E0= -.24960833E+02  d E =-.413044E-05  mag=     0.0000
       N       E                     dE             d eps       ncg     rms          rms(c)
DAV:   1    -0.249606733028E+02    0.33154E-07   -0.18496E-06  9592   0.487E-02    0.151E-03
DAV:   2    -0.249606733566E+02   -0.53751E-07   -0.95111E-07  8744   0.106E-02    0.158E-03
DAV:   3    -0.249606733509E+02    0.57216E-08   -0.14477E-07  9120   0.503E-03    0.777E-04
DAV:   4    -0.249606733473E+02    0.35270E-08   -0.21527E-08  4736   0.201E-03
  27 F= -.24960673E+02 E0= -.24960833E+02  d E =-.413990E-05  mag=    -0.0000
