       N       E                     dE             d eps       ncg     rms          rms(c)
DAV:   1     0.115964318761E+03    0.11596E+03   -0.94757E+03  3128   0.127E+03
DAV:   2    -0.450720278321E+01   -0.12047E+03   -0.11254E+03  3344   0.345E+02
DAV:   3    -0.675277315676E+01   -0.22456E+01   -0.22392E+01  3656   0.545E+01
DAV:   4    -0.676694154303E+01   -0.14168E-01   -0.14167E-01  3664   0.410E+00
DAV:   5    -0.676714903668E+01   -0.20749E-03   -0.20749E-03  3720   0.473E-01    0.844E+00
DAV:   6    -0.623369103395E+01    0.53346E+00   -0.35670E+00  3584   0.468E+01    0.585E+00
DAV:   7    -0.579789583093E+01    0.43580E+00   -0.78476E-01  3456   0.206E+01    0.103E+00
DAV:   8    -0.578789153925E+01    0.10004E-01   -0.10185E-02  3992   0.999E-01    0.567E-01
DAV:   9    -0.578650000114E+01    0.13915E-02   -0.69510E-04  4704   0.428E-01    0.628E-02
DAV:  10    -0.578654525151E+01   -0.45250E-04   -0.60741E-05  3312   0.970E-02    0.351E-02
DAV:  11    -0.578655115345E+01   -0.59019E-05   -0.31068E-06  4144   0.289E-02    0.894E-03
DAV:  12    -0.578655160039E+01   -0.44694E-06   -0.74113E-07  3472   0.119E-02    0.761E-03
DAV:  13    -0.578655149677E+01    0.10362E-06   -0.18032E-07  3720   0.591E-03    0.112E-03
DAV:  14    -0.578655152065E+01   -0.23878E-07   -0.12013E-08  3016   0.129E-03    0.225E-04
DAV:  15    -0.578655156029E+01   -0.39645E-07   -0.57518E-10  1808   0.375E-04    0.786E-05
DAV:  16    -0.578655157922E+01   -0.18923E-07   -0.11730E-10  1624   0.172E-04    0.893E-05
DAV:  17    -0.578655158561E+01   -0.63928E-08   -0.90061E-12  1592   0.532E-05
   1 F= -.57865516E+01 E0= -.57864724E+01  d E =-.578655E+01  mag=     0.7351
       N       E                     dE             d eps       ncg     rms          rms(c)
DAV:   1    -0.578685780366E+01   -0.30622E-03   -0.16989E-03  3416   0.903E-01    0.161E-01
DAV:   2    -0.578668899969E+01    0.16880E-03   -0.10185E-03  3576   0.794E-01    0.882E-02
DAV:   3    -0.578655881244E+01    0.13019E-03   -0.19348E-04  3544   0.339E-01    0.187E-02
DAV:   4    -0.578655237893E+01    0.64335E-05   -0.13297E-06  3672   0.121E-02    0.746E-03
DAV:   5    -0.578655234799E+01    0.30933E-07   -0.80831E-08  3976   0.274E-03    0.959E-04
DAV:   6    -0.578655229388E+01    0.54113E-07   -0.38363E-09  2512   0.864E-04    0.564E-04
DAV:   7    -0.578655226371E+01    0.30170E-07   -0.47163E-10  2168   0.277E-04    0.272E-04
DAV:   8    -0.578655223687E+01    0.26839E-07   -0.21426E-10  2232   0.241E-04    0.434E-05
DAV:   9    -0.578655223882E+01   -0.19500E-08   -0.99129E-11  1552   0.102E-04
   2 F= -.57865522E+01 E0= -.57864726E+01  d E =-.653214E-06  mag=     0.7350
       N       E                     dE             d eps       ncg     rms          rms(c)
DAV:   1    -0.578659233353E+01   -0.40097E-04   -0.21852E-04  3416   0.324E-01    0.582E-02
DAV:   2    -0.578656951886E+01    0.22815E-04   -0.13319E-04  3576   0.287E-01    0.325E-02
DAV:   3    -0.578655277769E+01    0.16741E-04   -0.25461E-05  3528   0.123E-01    0.646E-03
DAV:   4    -0.578655254411E+01    0.23358E-06   -0.20148E-07  3664   0.459E-03    0.143E-03
DAV:   5    -0.578655262714E+01   -0.83029E-07   -0.99281E-09  3616   0.127E-03    0.476E-04
DAV:   6    -0.578655263857E+01   -0.11432E-07   -0.62036E-10  1784   0.270E-04    0.179E-04
DAV:   7    -0.578655264970E+01   -0.11130E-07   -0.58658E-11  1752   0.127E-04    0.763E-05
DAV:   8    -0.578655265615E+01   -0.64474E-08   -0.33896E-11  1656   0.718E-05
   3 F= -.57865527E+01 E0= -.57864732E+01  d E =-.107054E-05  mag=     0.7350
