   1   1   0   0
  0.1640854E+02  0.2852299E-09  0.2852299E-09  0.2852299E-09  0.5000000E-15
  1.000000000000000E-004
  CAR 
 unknown system                          
     37.07771455     -5.02827798  301      8.11334651      1.00000000
     -5.028  0.0000E+00  0.0000E+00  0.0000E+00  0.0000E+00
     -4.888  0.0000E+00  0.0000E+00  0.0000E+00  0.0000E+00
     -4.748  0.0000E+00  0.0000E+00  0.0000E+00  0.0000E+00
     -4.607  0.0000E+00  0.0000E+00  0.0000E+00  0.0000E+00
     -4.467  0.0000E+00  0.0000E+00  0.0000E+00  0.0000E+00
     -4.327  0.0000E+00  0.0000E+00  0.0000E+00  0.0000E+00
     -4.186  0.0000E+00  0.0000E+00  0.0000E+00  0.0000E+00
     -4.046  0.0000E+00  0.0000E+00  0.0000E+00  0.0000E+00
     -3.905  0.0000E+00  0.0000E+00  0.0000E+00  0.0000E+00
     -3.765  0.0000E+00  0.0000E+00  0.0000E+00  0.0000E+00
     -3.625  0.0000E+00  0.0000E+00  0.0000E+00  0.0000E+00
     -3.484  0.0000E+00  0.0000E+00  0.0000E+00  0.0000E+00
     -3.344  0.0000E+00  0.0000E+00  0.0000E+00  0.0000E+00
     -3.204  0.0000E+00  0.0000E+00  0.0000E+00  0.0000E+00
     -3.063  0.1156E-02  0.1156E-02  0.1967E-04  0.1967E-04
     -2.923  0.1626E-01  0.1626E-01  0.1037E-02  0.1037E-02
     -2.783  0.2815E-01  0.2815E-01  0.4770E-02  0.4770E-02
     -2.642  0.3367E-01  0.3367E-01  0.9039E-02  0.9039E-02
     -2.502  0.4082E-01  0.4082E-01  0.1426E-01  0.1426E-01
     -2.362  0.4848E-01  0.4848E-01  0.2052E-01  0.2052E-01
     -2.221  0.5352E-01  0.5352E-01  0.2773E-01  0.2773E-01
     -2.081  0.5508E-01  0.5508E-01  0.3536E-01  0.3536E-01
     -1.941  0.5895E-01  0.5895E-01  0.4335E-01  0.4335E-01
     -1.800  0.6323E-01  0.6323E-01  0.5192E-01  0.5192E-01
     -1.660  0.6762E-01  0.6762E-01  0.6110E-01  0.6110E-01
     -1.519  0.7213E-01  0.7213E-01  0.7091E-01  0.7091E-01
     -1.379  0.7616E-01  0.7616E-01  0.8135E-01  0.8135E-01
     -1.239  0.7814E-01  0.7814E-01  0.9215E-01  0.9215E-01
     -1.098  0.8079E-01  0.8079E-01  0.1033E+00  0.1033E+00
     -0.958  0.8331E-01  0.8331E-01  0.1148E+00  0.1148E+00
     -0.818  0.8590E-01  0.8590E-01  0.1267E+00  0.1267E+00
     -0.677  0.8881E-01  0.8881E-01  0.1389E+00  0.1389E+00
     -0.537  0.9206E-01  0.9206E-01  0.1516E+00  0.1516E+00
     -0.397  0.9535E-01  0.9535E-01  0.1648E+00  0.1648E+00
     -0.256  0.9867E-01  0.9867E-01  0.1784E+00  0.1784E+00
     -0.116  0.1016E+00  0.1016E+00  0.1925E+00  0.1925E+00
      0.024  0.1033E+00  0.1033E+00  0.2069E+00  0.2069E+00
      0.165  0.1052E+00  0.1052E+00  0.2215E+00  0.2215E+00
      0.305  0.1074E+00  0.1074E+00  0.2364E+00  0.2364E+00
      0.446  0.1097E+00  0.1097E+00  0.2516E+00  0.2516E+00
      0.586  0.1120E+00  0.1120E+00  0.2672E+00  0.2672E+00
      0.726  0.1143E+00  0.1143E+00  0.2831E+00  0.2831E+00
      0.867  0.1167E+00  0.1167E+00  0.2993E+00  0.2993E+00
      1.007  0.1192E+00  0.1192E+00  0.3158E+00  0.3158E+00
      1.147  0.1218E+00  0.1218E+00  0.3327E+00  0.3327E+00
      1.288  0.1245E+00  0.1245E+00  0.3500E+00  0.3500E+00
      1.428  0.1271E+00  0.1271E+00  0.3677E+00  0.3677E+00
      1.568  0.1289E+00  0.1289E+00  0.3856E+00  0.3856E+00
      1.709  0.1308E+00  0.1308E+00  0.4039E+00  0.4039E+00
      1.849  0.1326E+00  0.1326E+00  0.4223E+00  0.4223E+00
      1.989  0.1345E+00  0.1345E+00  0.4411E+00  0.4411E+00
      2.130  0.1368E+00  0.1368E+00  0.4601E+00  0.4601E+00
      2.270  0.1398E+00  0.1398E+00  0.4795E+00  0.4795E+00
      2.410  0.1445E+00  0.1445E+00  0.4994E+00  0.4994E+00
      2.551  0.1507E+00  0.1507E+00  0.5201E+00  0.5201E+00
      2.691  0.1586E+00  0.1586E+00  0.5418E+00  0.5418E+00
      2.832  0.1681E+00  0.1681E+00  0.5647E+00  0.5647E+00
      2.972  0.1762E+00  0.1762E+00  0.5891E+00  0.5891E+00
      3.112  0.1695E+00  0.1695E+00  0.6134E+00  0.6134E+00
      3.253  0.1645E+00  0.1645E+00  0.6368E+00  0.6368E+00
      3.393  0.1610E+00  0.1610E+00  0.6596E+00  0.6596E+00
      3.533  0.1582E+00  0.1582E+00  0.6820E+00  0.6820E+00
      3.674  0.1626E+00  0.1626E+00  0.7043E+00  0.7043E+00
      3.814  0.1684E+00  0.1684E+00  0.7276E+00  0.7276E+00
      3.954  0.1692E+00  0.1692E+00  0.7514E+00  0.7514E+00
      4.095  0.1648E+00  0.1648E+00  0.7749E+00  0.7749E+00
      4.235  0.1504E+00  0.1504E+00  0.7972E+00  0.7972E+00
      4.375  0.1365E+00  0.1365E+00  0.8168E+00  0.8168E+00
      4.516  0.1473E+00  0.1473E+00  0.8365E+00  0.8365E+00
      4.656  0.1721E+00  0.1721E+00  0.8588E+00  0.8588E+00
      4.796  0.1846E+00  0.1846E+00  0.8842E+00  0.8842E+00
      4.937  0.1948E+00  0.1948E+00  0.9106E+00  0.9106E+00
      5.077  0.2032E+00  0.2032E+00  0.9387E+00  0.9387E+00
      5.218  0.2007E+00  0.2007E+00  0.9671E+00  0.9671E+00
      5.358  0.1894E+00  0.1894E+00  0.9946E+00  0.9946E+00
      5.498  0.1841E+00  0.1841E+00  0.1020E+01  0.1020E+01
      5.639  0.1692E+00  0.1692E+00  0.1046E+01  0.1046E+01
      5.779  0.1453E+00  0.1453E+00  0.1067E+01  0.1067E+01
      5.919  0.1554E+00  0.1554E+00  0.1088E+01  0.1088E+01
      6.060  0.1586E+00  0.1586E+00  0.1110E+01  0.1110E+01
      6.200  0.1760E+00  0.1760E+00  0.1134E+01  0.1134E+01
      6.340  0.1802E+00  0.1802E+00  0.1159E+01  0.1159E+01
      6.481  0.1792E+00  0.1792E+00  0.1184E+01  0.1184E+01
      6.621  0.1871E+00  0.1871E+00  0.1210E+01  0.1210E+01
      6.761  0.1840E+00  0.1840E+00  0.1236E+01  0.1236E+01
      6.902  0.1896E+00  0.1896E+00  0.1262E+01  0.1262E+01
      7.042  0.1963E+00  0.1963E+00  0.1289E+01  0.1289E+01
      7.182  0.2007E+00  0.2007E+00  0.1317E+01  0.1317E+01
      7.323  0.2035E+00  0.2035E+00  0.1345E+01  0.1345E+01
      7.463  0.2040E+00  0.2040E+00  0.1374E+01  0.1374E+01
      7.604  0.2020E+00  0.2020E+00  0.1403E+01  0.1403E+01
      7.744  0.1977E+00  0.1977E+00  0.1431E+01  0.1431E+01
      7.884  0.1908E+00  0.1908E+00  0.1458E+01  0.1458E+01
      8.025  0.1823E+00  0.1823E+00  0.1484E+01  0.1484E+01
      8.165  0.1670E+00  0.1670E+00  0.1509E+01  0.1509E+01
      8.305  0.1829E+00  0.1829E+00  0.1533E+01  0.1533E+01
      8.446  0.2084E+00  0.2084E+00  0.1560E+01  0.1560E+01
      8.586  0.2216E+00  0.2216E+00  0.1591E+01  0.1591E+01
      8.726  0.2206E+00  0.2206E+00  0.1622E+01  0.1622E+01
      8.867  0.2269E+00  0.2269E+00  0.1653E+01  0.1653E+01
      9.007  0.2276E+00  0.2276E+00  0.1685E+01  0.1685E+01
      9.147  0.2212E+00  0.2212E+00  0.1717E+01  0.1717E+01
      9.288  0.2181E+00  0.2181E+00  0.1748E+01  0.1748E+01
      9.428  0.2037E+00  0.2037E+00  0.1777E+01  0.1777E+01
      9.568  0.2030E+00  0.2030E+00  0.1805E+01  0.1805E+01
      9.709  0.1980E+00  0.1980E+00  0.1833E+01  0.1833E+01
      9.849  0.1963E+00  0.1963E+00  0.1861E+01  0.1861E+01
      9.990  0.2069E+00  0.2069E+00  0.1889E+01  0.1889E+01
     10.130  0.2164E+00  0.2164E+00  0.1919E+01  0.1919E+01
     10.270  0.2245E+00  0.2245E+00  0.1950E+01  0.1950E+01
     10.411  0.2280E+00  0.2280E+00  0.1982E+01  0.1982E+01
     10.551  0.2337E+00  0.2337E+00  0.2014E+01  0.2014E+01
     10.691  0.2409E+00  0.2409E+00  0.2047E+01  0.2047E+01
     10.832  0.2438E+00  0.2438E+00  0.2081E+01  0.2081E+01
     10.972  0.2221E+00  0.2221E+00  0.2114E+01  0.2114E+01
     11.112  0.2198E+00  0.2198E+00  0.2145E+01  0.2145E+01
     11.253  0.2186E+00  0.2186E+00  0.2176E+01  0.2176E+01
     11.393  0.2203E+00  0.2203E+00  0.2206E+01  0.2206E+01
     11.533  0.2251E+00  0.2251E+00  0.2238E+01  0.2238E+01
     11.674  0.2310E+00  0.2310E+00  0.2270E+01  0.2270E+01
     11.814  0.2405E+00  0.2405E+00  0.2303E+01  0.2303E+01
     11.954  0.2529E+00  0.2529E+00  0.2337E+01  0.2337E+01
     12.095  0.2752E+00  0.2752E+00  0.2376E+01  0.2376E+01
     12.235  0.2628E+00  0.2628E+00  0.2413E+01  0.2413E+01
     12.376  0.2626E+00  0.2626E+00  0.2450E+01  0.2450E+01
     12.516  0.2616E+00  0.2616E+00  0.2487E+01  0.2487E+01
     12.656  0.2623E+00  0.2623E+00  0.2524E+01  0.2524E+01
     12.797  0.2647E+00  0.2647E+00  0.2561E+01  0.2561E+01
     12.937  0.2675E+00  0.2675E+00  0.2598E+01  0.2598E+01
     13.077  0.2681E+00  0.2681E+00  0.2636E+01  0.2636E+01
     13.218  0.2721E+00  0.2721E+00  0.2673E+01  0.2673E+01
     13.358  0.2779E+00  0.2779E+00  0.2712E+01  0.2712E+01
     13.498  0.2853E+00  0.2853E+00  0.2752E+01  0.2752E+01
     13.639  0.2940E+00  0.2940E+00  0.2792E+01  0.2792E+01
     13.779  0.3083E+00  0.3083E+00  0.2834E+01  0.2834E+01
     13.919  0.3315E+00  0.3315E+00  0.2880E+01  0.2880E+01
     14.060  0.2882E+00  0.2882E+00  0.2921E+01  0.2921E+01
     14.200  0.2826E+00  0.2826E+00  0.2961E+01  0.2961E+01
     14.340  0.2791E+00  0.2791E+00  0.3001E+01  0.3001E+01
     14.481  0.2861E+00  0.2861E+00  0.3040E+01  0.3040E+01
     14.621  0.2854E+00  0.2854E+00  0.3081E+01  0.3081E+01
     14.762  0.2724E+00  0.2724E+00  0.3120E+01  0.3120E+01
     14.902  0.2664E+00  0.2664E+00  0.3158E+01  0.3158E+01
     15.042  0.2627E+00  0.2627E+00  0.3195E+01  0.3195E+01
     15.183  0.2600E+00  0.2600E+00  0.3232E+01  0.3232E+01
     15.323  0.2596E+00  0.2596E+00  0.3268E+01  0.3268E+01
     15.463  0.2603E+00  0.2603E+00  0.3305E+01  0.3305E+01
     15.604  0.2624E+00  0.2624E+00  0.3341E+01  0.3341E+01
     15.744  0.2680E+00  0.2680E+00  0.3378E+01  0.3378E+01
     15.884  0.2669E+00  0.2669E+00  0.3416E+01  0.3416E+01
     16.025  0.2638E+00  0.2638E+00  0.3453E+01  0.3453E+01
     16.165  0.2611E+00  0.2611E+00  0.3490E+01  0.3490E+01
     16.305  0.2589E+00  0.2589E+00  0.3527E+01  0.3527E+01
     16.446  0.2576E+00  0.2576E+00  0.3563E+01  0.3563E+01
     16.586  0.2540E+00  0.2540E+00  0.3599E+01  0.3599E+01
     16.726  0.2540E+00  0.2540E+00  0.3634E+01  0.3634E+01
     16.867  0.2541E+00  0.2541E+00  0.3670E+01  0.3670E+01
     17.007  0.2543E+00  0.2543E+00  0.3706E+01  0.3706E+01
     17.148  0.2549E+00  0.2549E+00  0.3741E+01  0.3741E+01
     17.288  0.2556E+00  0.2556E+00  0.3777E+01  0.3777E+01
     17.428  0.2571E+00  0.2571E+00  0.3813E+01  0.3813E+01
     17.569  0.2608E+00  0.2608E+00  0.3849E+01  0.3849E+01
     17.709  0.2642E+00  0.2642E+00  0.3886E+01  0.3886E+01
     17.849  0.2669E+00  0.2669E+00  0.3924E+01  0.3924E+01
     17.990  0.2702E+00  0.2702E+00  0.3961E+01  0.3961E+01
     18.130  0.2738E+00  0.2738E+00  0.4000E+01  0.4000E+01
     18.270  0.2777E+00  0.2777E+00  0.4038E+01  0.4038E+01
     18.411  0.2819E+00  0.2819E+00  0.4077E+01  0.4077E+01
     18.551  0.2865E+00  0.2865E+00  0.4117E+01  0.4117E+01
     18.691  0.2920E+00  0.2920E+00  0.4158E+01  0.4158E+01
     18.832  0.2992E+00  0.2992E+00  0.4199E+01  0.4199E+01
     18.972  0.3076E+00  0.3076E+00  0.4242E+01  0.4242E+01
     19.112  0.3122E+00  0.3122E+00  0.4285E+01  0.4285E+01
     19.253  0.3279E+00  0.3279E+00  0.4330E+01  0.4330E+01
     19.393  0.3450E+00  0.3450E+00  0.4377E+01  0.4377E+01
     19.534  0.3575E+00  0.3575E+00  0.4427E+01  0.4427E+01
     19.674  0.3660E+00  0.3660E+00  0.4478E+01  0.4478E+01
     19.814  0.3756E+00  0.3756E+00  0.4529E+01  0.4529E+01
     19.955  0.3889E+00  0.3889E+00  0.4583E+01  0.4583E+01
     20.095  0.3946E+00  0.3946E+00  0.4638E+01  0.4638E+01
     20.235  0.3956E+00  0.3956E+00  0.4694E+01  0.4694E+01
     20.376  0.3973E+00  0.3973E+00  0.4749E+01  0.4749E+01
     20.516  0.3941E+00  0.3941E+00  0.4805E+01  0.4805E+01
     20.656  0.3740E+00  0.3740E+00  0.4859E+01  0.4859E+01
     20.797  0.3269E+00  0.3269E+00  0.4908E+01  0.4908E+01
     20.937  0.2913E+00  0.2913E+00  0.4952E+01  0.4952E+01
     21.077  0.2715E+00  0.2715E+00  0.4991E+01  0.4991E+01
     21.218  0.2592E+00  0.2592E+00  0.5028E+01  0.5028E+01
     21.358  0.2345E+00  0.2345E+00  0.5063E+01  0.5063E+01
     21.498  0.2299E+00  0.2299E+00  0.5095E+01  0.5095E+01
     21.639  0.2466E+00  0.2466E+00  0.5128E+01  0.5128E+01
     21.779  0.2576E+00  0.2576E+00  0.5164E+01  0.5164E+01
     21.920  0.2589E+00  0.2589E+00  0.5200E+01  0.5200E+01
     22.060  0.2545E+00  0.2545E+00  0.5236E+01  0.5236E+01
     22.200  0.2517E+00  0.2517E+00  0.5271E+01  0.5271E+01
     22.341  0.2597E+00  0.2597E+00  0.5307E+01  0.5307E+01
     22.481  0.2776E+00  0.2776E+00  0.5345E+01  0.5345E+01
     22.621  0.3068E+00  0.3068E+00  0.5386E+01  0.5386E+01
     22.762  0.3429E+00  0.3429E+00  0.5431E+01  0.5431E+01
     22.902  0.3962E+00  0.3962E+00  0.5483E+01  0.5483E+01
     23.042  0.4235E+00  0.4235E+00  0.5541E+01  0.5541E+01
     23.183  0.4464E+00  0.4464E+00  0.5602E+01  0.5602E+01
     23.323  0.4416E+00  0.4416E+00  0.5673E+01  0.5673E+01
     23.463  0.4390E+00  0.4390E+00  0.5735E+01  0.5735E+01
     23.604  0.3759E+00  0.3759E+00  0.5792E+01  0.5792E+01
     23.744  0.3104E+00  0.3104E+00  0.5841E+01  0.5841E+01
     23.885  0.2691E+00  0.2691E+00  0.5881E+01  0.5881E+01
     24.025  0.2802E+00  0.2802E+00  0.5919E+01  0.5919E+01
     24.165  0.2890E+00  0.2890E+00  0.5959E+01  0.5959E+01
     24.306  0.3020E+00  0.3020E+00  0.5999E+01  0.5999E+01
     24.446  0.2932E+00  0.2932E+00  0.6042E+01  0.6042E+01
     24.586  0.2814E+00  0.2814E+00  0.6082E+01  0.6082E+01
     24.727  0.2731E+00  0.2731E+00  0.6121E+01  0.6121E+01
     24.867  0.2705E+00  0.2705E+00  0.6159E+01  0.6159E+01
     25.007  0.2788E+00  0.2788E+00  0.6197E+01  0.6197E+01
     25.148  0.2939E+00  0.2939E+00  0.6237E+01  0.6237E+01
     25.288  0.3116E+00  0.3116E+00  0.6280E+01  0.6280E+01
     25.428  0.3279E+00  0.3279E+00  0.6325E+01  0.6325E+01
     25.569  0.3428E+00  0.3428E+00  0.6372E+01  0.6372E+01
     25.709  0.3570E+00  0.3570E+00  0.6421E+01  0.6421E+01
     25.849  0.3705E+00  0.3705E+00  0.6472E+01  0.6472E+01
     25.990  0.3994E+00  0.3994E+00  0.6526E+01  0.6526E+01
     26.130  0.4411E+00  0.4411E+00  0.6585E+01  0.6585E+01
     26.271  0.4486E+00  0.4486E+00  0.6648E+01  0.6648E+01
     26.411  0.4255E+00  0.4255E+00  0.6709E+01  0.6709E+01
     26.551  0.4059E+00  0.4059E+00  0.6767E+01  0.6767E+01
     26.692  0.4082E+00  0.4082E+00  0.6825E+01  0.6825E+01
     26.832  0.4052E+00  0.4052E+00  0.6881E+01  0.6881E+01
     26.972  0.3795E+00  0.3795E+00  0.6938E+01  0.6938E+01
     27.113  0.3300E+00  0.3300E+00  0.6987E+01  0.6987E+01
     27.253  0.2919E+00  0.2919E+00  0.7031E+01  0.7031E+01
     27.393  0.2685E+00  0.2685E+00  0.7070E+01  0.7070E+01
     27.534  0.2508E+00  0.2508E+00  0.7107E+01  0.7107E+01
     27.674  0.2233E+00  0.2233E+00  0.7140E+01  0.7140E+01
     27.814  0.2080E+00  0.2080E+00  0.7170E+01  0.7170E+01
     27.955  0.1954E+00  0.1954E+00  0.7198E+01  0.7198E+01
     28.095  0.1951E+00  0.1951E+00  0.7226E+01  0.7226E+01
     28.235  0.1989E+00  0.1989E+00  0.7253E+01  0.7253E+01
     28.376  0.2059E+00  0.2059E+00  0.7282E+01  0.7282E+01
     28.516  0.2162E+00  0.2162E+00  0.7311E+01  0.7311E+01
     28.657  0.2272E+00  0.2272E+00  0.7343E+01  0.7343E+01
     28.797  0.2370E+00  0.2370E+00  0.7375E+01  0.7375E+01
     28.937  0.2453E+00  0.2453E+00  0.7409E+01  0.7409E+01
     29.078  0.2524E+00  0.2524E+00  0.7444E+01  0.7444E+01
     29.218  0.2582E+00  0.2582E+00  0.7480E+01  0.7480E+01
     29.358  0.2607E+00  0.2607E+00  0.7516E+01  0.7516E+01
     29.499  0.2582E+00  0.2582E+00  0.7553E+01  0.7553E+01
     29.639  0.2489E+00  0.2489E+00  0.7588E+01  0.7588E+01
     29.779  0.2329E+00  0.2329E+00  0.7622E+01  0.7622E+01
     29.920  0.1912E+00  0.1912E+00  0.7653E+01  0.7653E+01
     30.060  0.1551E+00  0.1551E+00  0.7676E+01  0.7676E+01
     30.200  0.1518E+00  0.1518E+00  0.7698E+01  0.7698E+01
     30.341  0.1482E+00  0.1482E+00  0.7719E+01  0.7719E+01
     30.481  0.1439E+00  0.1439E+00  0.7739E+01  0.7739E+01
     30.621  0.1388E+00  0.1388E+00  0.7759E+01  0.7759E+01
     30.762  0.1331E+00  0.1331E+00  0.7778E+01  0.7778E+01
     30.902  0.1266E+00  0.1266E+00  0.7797E+01  0.7797E+01
     31.043  0.1202E+00  0.1202E+00  0.7814E+01  0.7814E+01
     31.183  0.1083E+00  0.1083E+00  0.7830E+01  0.7830E+01
     31.323  0.1011E+00  0.1011E+00  0.7845E+01  0.7845E+01
     31.464  0.9686E-01  0.9686E-01  0.7858E+01  0.7858E+01
     31.604  0.9303E-01  0.9303E-01  0.7872E+01  0.7872E+01
     31.744  0.8990E-01  0.8990E-01  0.7885E+01  0.7885E+01
     31.885  0.8503E-01  0.8503E-01  0.7897E+01  0.7897E+01
     32.025  0.7725E-01  0.7725E-01  0.7908E+01  0.7908E+01
     32.165  0.7156E-01  0.7156E-01  0.7919E+01  0.7919E+01
     32.306  0.6584E-01  0.6584E-01  0.7928E+01  0.7928E+01
     32.446  0.5966E-01  0.5966E-01  0.7937E+01  0.7937E+01
     32.586  0.5349E-01  0.5349E-01  0.7945E+01  0.7945E+01
     32.727  0.4791E-01  0.4791E-01  0.7952E+01  0.7952E+01
     32.867  0.4292E-01  0.4292E-01  0.7959E+01  0.7959E+01
     33.007  0.3851E-01  0.3851E-01  0.7964E+01  0.7964E+01
     33.148  0.3469E-01  0.3469E-01  0.7969E+01  0.7969E+01
     33.288  0.3146E-01  0.3146E-01  0.7974E+01  0.7974E+01
     33.429  0.2882E-01  0.2882E-01  0.7978E+01  0.7978E+01
     33.569  0.2699E-01  0.2699E-01  0.7982E+01  0.7982E+01
     33.709  0.2769E-01  0.2769E-01  0.7986E+01  0.7986E+01
     33.850  0.3106E-01  0.3106E-01  0.7990E+01  0.7990E+01
     33.990  0.1710E-01  0.1710E-01  0.7994E+01  0.7994E+01
     34.130  0.1193E-01  0.1193E-01  0.7996E+01  0.7996E+01
     34.271  0.8908E-02  0.8908E-02  0.7997E+01  0.7997E+01
     34.411  0.6328E-02  0.6328E-02  0.7998E+01  0.7998E+01
     34.551  0.4188E-02  0.4188E-02  0.7999E+01  0.7999E+01
     34.692  0.2489E-02  0.2489E-02  0.8000E+01  0.8000E+01
     34.832  0.1229E-02  0.1229E-02  0.8000E+01  0.8000E+01
     34.972  0.4090E-03  0.4090E-03  0.8000E+01  0.8000E+01
     35.113  0.2908E-04  0.2909E-04  0.8000E+01  0.8000E+01
     35.253  0.0000E+00  0.0000E+00  0.8000E+01  0.8000E+01
     35.393  0.0000E+00  0.0000E+00  0.8000E+01  0.8000E+01
     35.534  0.0000E+00  0.0000E+00  0.8000E+01  0.8000E+01
     35.674  0.0000E+00  0.0000E+00  0.8000E+01  0.8000E+01
     35.815  0.0000E+00  0.0000E+00  0.8000E+01  0.8000E+01
     35.955  0.0000E+00  0.0000E+00  0.8000E+01  0.8000E+01
     36.095  0.0000E+00  0.0000E+00  0.8000E+01  0.8000E+01
     36.236  0.0000E+00  0.0000E+00  0.8000E+01  0.8000E+01
     36.376  0.0000E+00  0.0000E+00  0.8000E+01  0.8000E+01
     36.516  0.0000E+00  0.0000E+00  0.8000E+01  0.8000E+01
     36.657  0.0000E+00  0.0000E+00  0.8000E+01  0.8000E+01
     36.797  0.0000E+00  0.0000E+00  0.8000E+01  0.8000E+01
     36.937  0.0000E+00  0.0000E+00  0.8000E+01  0.8000E+01
     37.078  0.0000E+00  0.0000E+00  0.8000E+01  0.8000E+01
