       N       E                     dE             d eps       ncg     rms          rms(c)
DAV:   1    -0.373266627976E+01   -0.37327E+01   -0.11457E-01  1504   0.325E+00    0.248E-02
DAV:   2    -0.373268322841E+01   -0.16949E-04   -0.98790E-05  1968   0.667E-02    0.155E-02
DAV:   3    -0.373269013998E+01   -0.69116E-05   -0.29252E-06  1808   0.118E-02    0.649E-04
DAV:   4    -0.373269008633E+01    0.53647E-07   -0.25990E-08  2016   0.104E-03    0.225E-04
DAV:   5    -0.373268996988E+01    0.11645E-06   -0.21577E-09  1728   0.289E-04    0.243E-05
DAV:   6    -0.373268996078E+01    0.90956E-08   -0.11118E-11  1160   0.201E-05
   1 F= -.37326900E+01 E0= -.37326900E+01  d E =0.000000E+00  mag=     0.0000
