       N       E                     dE             d eps       ncg     rms          rms(c)
DAV:   1    -0.178704807164E+01   -0.17870E+01   -0.84428E+02  1744   0.151E+02
DAV:   2    -0.252189621527E+01   -0.73485E+00   -0.71706E+00  2160   0.152E+01
DAV:   3    -0.252291447677E+01   -0.10183E-02   -0.10183E-02  1888   0.577E-01
DAV:   4    -0.252291556407E+01   -0.10873E-05   -0.10873E-05  2296   0.150E-02
DAV:   5    -0.252291556403E+01    0.35101E-10   -0.14589E-08  1904   0.274E-04    0.262E+00
DAV:   6    -0.278276577260E+01   -0.25985E+00   -0.17822E-02  1960   0.781E-01    0.817E-01
DAV:   7    -0.276965501783E+01    0.13111E-01   -0.72969E-03  1960   0.509E-01    0.468E-01
DAV:   8    -0.276610863968E+01    0.35464E-02   -0.39716E-03  1888   0.340E-01    0.182E-01
DAV:   9    -0.276664593294E+01   -0.53729E-03   -0.38099E-04  1784   0.996E-02    0.272E-02
DAV:  10    -0.276665121733E+01   -0.52844E-05   -0.16284E-05  2352   0.247E-02    0.928E-03
DAV:  11    -0.276664556325E+01    0.56541E-05   -0.20099E-06  1936   0.909E-03    0.239E-03
DAV:  12    -0.276664570415E+01   -0.14091E-06   -0.62528E-07  1776   0.534E-03    0.665E-04
DAV:  13    -0.276664579099E+01   -0.86837E-07   -0.38575E-08  2024   0.129E-03    0.277E-04
DAV:  14    -0.276664587193E+01   -0.80937E-07   -0.43035E-09  1064   0.378E-04    0.106E-04
DAV:  15    -0.276664589267E+01   -0.20745E-07   -0.53026E-10   904   0.148E-04    0.145E-05
DAV:  16    -0.276664589120E+01    0.14711E-08   -0.58762E-11   824   0.398E-05
   1 F= -.27666459E+01 E0= -.27666298E+01  d E =-.276665E+01  mag=     0.0000
       N       E                     dE             d eps       ncg     rms          rms(c)
DAV:   1    -0.366731044061E+01   -0.90066E+00   -0.16634E+01  1840   0.130E+01    0.197E+00
DAV:   2    -0.355988060896E+01    0.10743E+00   -0.78692E-02  1728   0.132E+00    0.122E+00
DAV:   3    -0.349230454820E+01    0.67576E-01   -0.36160E-02  1696   0.614E-01    0.474E-02
DAV:   4    -0.349228749050E+01    0.17058E-04   -0.82655E-05  1904   0.511E-02    0.307E-02
DAV:   5    -0.349228883983E+01   -0.13493E-05   -0.11041E-05  1872   0.139E-02    0.107E-03
DAV:   6    -0.349228868763E+01    0.15220E-06   -0.37205E-08  1968   0.108E-03    0.455E-04
DAV:   7    -0.349228869975E+01   -0.12120E-07   -0.88851E-09  1840   0.459E-04    0.422E-05
DAV:   8    -0.349228870544E+01   -0.56889E-08   -0.42381E-11  1008   0.364E-05
   2 F= -.34922887E+01 E0= -.34919509E+01  d E =-.725643E+00  mag=     0.0000
       N       E                     dE             d eps       ncg     rms          rms(c)
DAV:   1    -0.375254108428E+01   -0.26025E+00   -0.52661E+00  1696   0.854E+00    0.113E+00
DAV:   2    -0.372734244431E+01    0.25199E-01   -0.13053E-02  1904   0.538E-01    0.701E-01
DAV:   3    -0.370902814546E+01    0.18314E-01   -0.98870E-03  1808   0.348E-01    0.299E-02
DAV:   4    -0.370903094745E+01   -0.28020E-05   -0.14591E-05  1856   0.244E-02    0.172E-02
DAV:   5    -0.370903014595E+01    0.80151E-06   -0.12687E-06  1776   0.500E-03    0.673E-04
DAV:   6    -0.370902988909E+01    0.25685E-06   -0.54993E-09  2032   0.363E-04    0.200E-04
DAV:   7    -0.370902980801E+01    0.81089E-07   -0.63605E-10  1336   0.119E-04    0.482E-05
DAV:   8    -0.370902980537E+01    0.26327E-08   -0.16137E-11   944   0.223E-05
   3 F= -.37090298E+01 E0= -.37088918E+01  d E =-.942384E+00  mag=     0.0000
