<?xml version="1.0" encoding="ISO-8859-1"?>
<modeling>
 <generator>
  <i name="program" type="string">vasp </i>
  <i name="version" type="string">5.4.4.18Apr17-6-g9f103f2a35  </i>
  <i name="subversion" type="string">(build Jan 03 2018 06:08:52) complex            parallel </i>
  <i name="platform" type="string">LinuxIFC </i>
  <i name="date" type="string">2023 05 04 </i>
  <i name="time" type="string">18:03:49 </i>
 </generator>
 <incar>
  <i type="string" name="PREC">high</i>
  <i type="int" name="ISPIN">     2</i>
  <i type="int" name="IBRION">    -1</i>
  <i name="EDIFF">      0.00000001</i>
  <i name="EDIFFG">      0.00001000</i>
  <i type="int" name="ISIF">     2</i>
  <i type="int" name="ISMEAR">    -5</i>
  <i name="SIGMA">      0.07000000</i>
  <v type="int" name="KPOINT_BSE">    -1     0     0     0</v>
 </incar>
 <structure name="primitive_cell" >
  <crystal>
   <varray name="basis" >
    <v>       2.01687977       0.00000000       2.01687977 </v>
    <v>       2.01687977       2.01687977       0.00000000 </v>
    <v>       0.00000000       2.01687977       2.01687977 </v>
   </varray>
   <i name="volume">     16.40854317 </i>
   <varray name="rec_basis" >
    <v>       0.24790769      -0.24790769       0.24790769 </v>
    <v>       0.24790769       0.24790769      -0.24790769 </v>
    <v>      -0.24790769       0.24790769       0.24790769 </v>
   </varray>
  </crystal>
  <varray name="positions" >
   <v>       0.00000000       0.00000000       0.00000000 </v>
  </varray>
 </structure>
 <varray name="primitive_index" >
  <v type="int" >        1 </v>
 </varray>
 <kpoints>
  <generation param="Gamma">
   <v type="int" name="divisions">      10       10       10 </v>
   <v name="usershift">      0.00000000       0.00000000       0.00000000 </v>
   <v name="genvec1">      0.10000000       0.00000000       0.00000000 </v>
   <v name="genvec2">      0.00000000       0.10000000       0.00000000 </v>
   <v name="genvec3">      0.00000000       0.00000000       0.10000000 </v>
   <v name="shift">      0.00000000       0.00000000       0.00000000 </v>
  </generation>
  <varray name="kpointlist" >
   <v>       0.00000000       0.00000000       0.00000000 </v>
   <v>       0.10000000       0.00000000       0.00000000 </v>
   <v>       0.20000000       0.00000000       0.00000000 </v>
   <v>       0.30000000       0.00000000       0.00000000 </v>
   <v>       0.40000000       0.00000000       0.00000000 </v>
   <v>       0.50000000       0.00000000       0.00000000 </v>
   <v>       0.10000000       0.10000000       0.00000000 </v>
   <v>       0.20000000       0.10000000       0.00000000 </v>
   <v>       0.30000000       0.10000000       0.00000000 </v>
   <v>       0.40000000       0.10000000       0.00000000 </v>
   <v>       0.50000000       0.10000000       0.00000000 </v>
   <v>      -0.40000000       0.10000000       0.00000000 </v>
   <v>      -0.30000000       0.10000000       0.00000000 </v>
   <v>      -0.20000000       0.10000000       0.00000000 </v>
   <v>      -0.10000000       0.10000000       0.00000000 </v>
   <v>       0.20000000       0.20000000       0.00000000 </v>
   <v>       0.30000000       0.20000000       0.00000000 </v>
   <v>       0.40000000       0.20000000       0.00000000 </v>
   <v>       0.50000000       0.20000000       0.00000000 </v>
   <v>      -0.40000000       0.20000000       0.00000000 </v>
   <v>      -0.30000000       0.20000000       0.00000000 </v>
   <v>      -0.20000000       0.20000000       0.00000000 </v>
   <v>       0.30000000       0.30000000       0.00000000 </v>
   <v>       0.40000000       0.30000000       0.00000000 </v>
   <v>       0.50000000       0.30000000       0.00000000 </v>
   <v>      -0.40000000       0.30000000       0.00000000 </v>
   <v>      -0.30000000       0.30000000       0.00000000 </v>
   <v>       0.40000000       0.40000000       0.00000000 </v>
   <v>       0.50000000       0.40000000       0.00000000 </v>
   <v>      -0.40000000       0.40000000       0.00000000 </v>
   <v>       0.50000000       0.50000000       0.00000000 </v>
   <v>       0.30000000       0.20000000       0.10000000 </v>
   <v>       0.40000000       0.20000000       0.10000000 </v>
   <v>       0.50000000       0.20000000       0.10000000 </v>
   <v>      -0.40000000       0.20000000       0.10000000 </v>
   <v>       0.40000000       0.30000000       0.10000000 </v>
   <v>       0.50000000       0.30000000       0.10000000 </v>
   <v>      -0.40000000       0.30000000       0.10000000 </v>
   <v>      -0.30000000       0.30000000       0.10000000 </v>
   <v>      -0.20000000       0.30000000       0.10000000 </v>
   <v>       0.50000000       0.40000000       0.10000000 </v>
   <v>      -0.40000000       0.40000000       0.10000000 </v>
   <v>      -0.30000000       0.40000000       0.10000000 </v>
   <v>      -0.40000000       0.50000000       0.10000000 </v>
   <v>      -0.40000000       0.40000000       0.20000000 </v>
   <v>      -0.30000000       0.40000000       0.20000000 </v>
   <v>      -0.30000000       0.50000000       0.20000000 </v>
  </varray>
  <varray name="weights" >
   <v>       0.00100000 </v>
   <v>       0.00800000 </v>
   <v>       0.00800000 </v>
   <v>       0.00800000 </v>
   <v>       0.00800000 </v>
   <v>       0.00400000 </v>
   <v>       0.00600000 </v>
   <v>       0.02400000 </v>
   <v>       0.02400000 </v>
   <v>       0.02400000 </v>
   <v>       0.02400000 </v>
   <v>       0.02400000 </v>
   <v>       0.02400000 </v>
   <v>       0.02400000 </v>
   <v>       0.01200000 </v>
   <v>       0.00600000 </v>
   <v>       0.02400000 </v>
   <v>       0.02400000 </v>
   <v>       0.02400000 </v>
   <v>       0.02400000 </v>
   <v>       0.02400000 </v>
   <v>       0.01200000 </v>
   <v>       0.00600000 </v>
   <v>       0.02400000 </v>
   <v>       0.02400000 </v>
   <v>       0.02400000 </v>
   <v>       0.01200000 </v>
   <v>       0.00600000 </v>
   <v>       0.02400000 </v>
   <v>       0.01200000 </v>
   <v>       0.00300000 </v>
   <v>       0.02400000 </v>
   <v>       0.04800000 </v>
   <v>       0.04800000 </v>
   <v>       0.02400000 </v>
   <v>       0.02400000 </v>
   <v>       0.04800000 </v>
   <v>       0.04800000 </v>
   <v>       0.04800000 </v>
   <v>       0.02400000 </v>
   <v>       0.02400000 </v>
   <v>       0.04800000 </v>
   <v>       0.02400000 </v>
   <v>       0.01200000 </v>
   <v>       0.02400000 </v>
   <v>       0.02400000 </v>
   <v>       0.01200000 </v>
  </varray>
  <varray name="tetrahedronlist"  type="int" >
   <v type="int" >       24        1        2        2        7 </v>
   <v type="int" >       48        2        7        8       15 </v>
   <v type="int" >       48        2        3        8       15 </v>
   <v type="int" >       24        2        2        7       15 </v>
   <v type="int" >       48        3        8        9       14 </v>
   <v type="int" >       48        3        4        9       14 </v>
   <v type="int" >       48        3        8       14       15 </v>
   <v type="int" >       48        4        9       10       13 </v>
   <v type="int" >       48        4        5       10       13 </v>
   <v type="int" >       48        4        9       13       14 </v>
   <v type="int" >       48        5       10       11       12 </v>
   <v type="int" >       48        5        6       11       12 </v>
   <v type="int" >       48        5       10       12       13 </v>
   <v type="int" >       48        6       11       11       12 </v>
   <v type="int" >       24        7        8        8       16 </v>
   <v type="int" >       24        7        8        8       15 </v>
   <v type="int" >       48        8       16       17       32 </v>
   <v type="int" >       48        8        9       17       32 </v>
   <v type="int" >       48        8        9       14       32 </v>
   <v type="int" >       24        8        8       16       32 </v>
   <v type="int" >       24        8        8       15       32 </v>
   <v type="int" >       48        8       14       15       32 </v>
   <v type="int" >       48        9       17       18       33 </v>
   <v type="int" >       48        9       10       18       33 </v>
   <v type="int" >       48        9       10       13       33 </v>
   <v type="int" >       48        9       17       32       33 </v>
   <v type="int" >       48        9       14       32       33 </v>
   <v type="int" >       48        9       13       14       33 </v>
   <v type="int" >       48       10       18       19       34 </v>
   <v type="int" >       48       10       11       19       34 </v>
   <v type="int" >       48       10       11       12       34 </v>
   <v type="int" >       48       10       18       33       34 </v>
   <v type="int" >       48       10       13       33       34 </v>
   <v type="int" >       48       10       12       13       34 </v>
   <v type="int" >       48       11       19       20       35 </v>
   <v type="int" >       48       11       12       20       35 </v>
   <v type="int" >       48       11       11       12       35 </v>
   <v type="int" >       48       11       19       34       35 </v>
   <v type="int" >       48       11       12       34       35 </v>
   <v type="int" >       48       12       20       21       34 </v>
   <v type="int" >       48       12       13       21       34 </v>
   <v type="int" >       48       12       20       34       35 </v>
   <v type="int" >       48       13       21       22       33 </v>
   <v type="int" >       48       13       14       22       33 </v>
   <v type="int" >       48       13       21       33       34 </v>
   <v type="int" >       24       14       14       22       32 </v>
   <v type="int" >       24       14       14       15       32 </v>
   <v type="int" >       48       14       22       32       33 </v>
   <v type="int" >       24       16       17       17       23 </v>
   <v type="int" >       24       16       17       17       32 </v>
   <v type="int" >       48       17       23       24       36 </v>
   <v type="int" >       48       17       18       24       36 </v>
   <v type="int" >       48       17       18       33       36 </v>
   <v type="int" >       24       17       17       23       36 </v>
   <v type="int" >       24       17       17       32       36 </v>
   <v type="int" >       48       17       32       33       36 </v>
   <v type="int" >       48       18       24       25       37 </v>
   <v type="int" >       48       18       19       25       37 </v>
   <v type="int" >       48       18       19       34       37 </v>
   <v type="int" >       48       18       24       36       37 </v>
   <v type="int" >       48       18       33       36       37 </v>
   <v type="int" >       48       18       33       34       37 </v>
   <v type="int" >       48       19       25       26       38 </v>
   <v type="int" >       48       19       20       26       38 </v>
   <v type="int" >       48       19       20       35       38 </v>
   <v type="int" >       48       19       25       37       38 </v>
   <v type="int" >       48       19       34       37       38 </v>
   <v type="int" >       48       19       34       35       38 </v>
   <v type="int" >       48       20       26       27       39 </v>
   <v type="int" >       48       20       21       27       39 </v>
   <v type="int" >       48       20       21       34       39 </v>
   <v type="int" >       48       20       26       38       39 </v>
   <v type="int" >       48       20       35       38       39 </v>
   <v type="int" >       48       20       34       35       39 </v>
   <v type="int" >       24       21       21       27       40 </v>
   <v type="int" >       24       21       21       22       40 </v>
   <v type="int" >       48       21       22       33       40 </v>
   <v type="int" >       48       21       27       39       40 </v>
   <v type="int" >       48       21       34       39       40 </v>
   <v type="int" >       48       21       33       34       40 </v>
   <v type="int" >       24       22       33       33       40 </v>
   <v type="int" >       24       22       32       33       33 </v>
   <v type="int" >       24       23       24       24       28 </v>
   <v type="int" >       24       23       24       24       36 </v>
   <v type="int" >       48       24       28       29       41 </v>
   <v type="int" >       48       24       25       29       41 </v>
   <v type="int" >       48       24       25       37       41 </v>
   <v type="int" >       24       24       24       28       41 </v>
   <v type="int" >       24       24       24       36       41 </v>
   <v type="int" >       48       24       36       37       41 </v>
   <v type="int" >       48       25       29       30       42 </v>
   <v type="int" >       48       25       26       30       42 </v>
   <v type="int" >       48       25       26       38       42 </v>
   <v type="int" >       48       25       29       41       42 </v>
   <v type="int" >       48       25       37       41       42 </v>
   <v type="int" >       48       25       37       38       42 </v>
   <v type="int" >       24       26       26       30       43 </v>
   <v type="int" >       24       26       26       27       43 </v>
   <v type="int" >       48       26       27       39       43 </v>
   <v type="int" >       48       26       30       42       43 </v>
   <v type="int" >       48       26       38       42       43 </v>
   <v type="int" >       48       26       38       39       43 </v>
   <v type="int" >       24       27       39       39       43 </v>
   <v type="int" >       24       27       39       39       40 </v>
   <v type="int" >       24       28       29       29       31 </v>
   <v type="int" >       24       28       29       29       41 </v>
   <v type="int" >       48       29       29       31       44 </v>
   <v type="int" >       24       29       29       30       44 </v>
   <v type="int" >       48       29       30       42       44 </v>
   <v type="int" >       24       29       29       41       44 </v>
   <v type="int" >       48       29       41       42       44 </v>
   <v type="int" >       24       30       42       42       44 </v>
   <v type="int" >       24       30       42       42       43 </v>
   <v type="int" >       24       32       33       33       36 </v>
   <v type="int" >       48       33       36       37       40 </v>
   <v type="int" >       48       33       34       37       40 </v>
   <v type="int" >       24       33       33       36       40 </v>
   <v type="int" >       48       34       37       38       39 </v>
   <v type="int" >       48       34       35       38       39 </v>
   <v type="int" >       48       34       37       39       40 </v>
   <v type="int" >       48       35       38       38       39 </v>
   <v type="int" >       24       36       37       37       41 </v>
   <v type="int" >       24       36       37       37       40 </v>
   <v type="int" >       48       37       41       42       45 </v>
   <v type="int" >       48       37       38       42       45 </v>
   <v type="int" >       48       37       38       39       45 </v>
   <v type="int" >       24       37       37       41       45 </v>
   <v type="int" >       24       37       37       40       45 </v>
   <v type="int" >       48       37       39       40       45 </v>
   <v type="int" >       48       38       42       43       46 </v>
   <v type="int" >       48       38       39       43       46 </v>
   <v type="int" >       48       38       38       39       46 </v>
   <v type="int" >       48       38       42       45       46 </v>
   <v type="int" >       48       38       39       45       46 </v>
   <v type="int" >       24       39       39       43       45 </v>
   <v type="int" >       24       39       39       40       45 </v>
   <v type="int" >       48       39       43       45       46 </v>
   <v type="int" >       24       41       42       42       44 </v>
   <v type="int" >       24       41       42       42       45 </v>
   <v type="int" >       48       42       42       44       47 </v>
   <v type="int" >       24       42       42       43       47 </v>
   <v type="int" >       48       42       43       46       47 </v>
   <v type="int" >       24       42       42       45       47 </v>
   <v type="int" >       48       42       45       46       47 </v>
   <v type="int" >       24       43       46       46       47 </v>
   <v type="int" >       24       43       45       46       46 </v>
   <v type="int" >       24       45       46       46       47 </v>
   <v type="int" >       24       46       46       47       47 </v>
  </varray>
  <i name="volumeweight">      0.00016667 </i>
 </kpoints>
 <parameters>
  <separator name="general" >
   <i type="string" name="SYSTEM">unknown system</i>
   <i type="logical" name="LCOMPAT"> F  </i>
  </separator>
  <separator name="electronic" >
   <i type="string" name="PREC">high</i>
   <i name="ENMAX">    300.37500000</i>
   <i name="ENAUG">    291.05200000</i>
   <i name="EDIFF">      0.00000001</i>
   <i type="int" name="IALGO">    38</i>
   <i type="int" name="IWAVPR">    10</i>
   <i type="int" name="NBANDS">     8</i>
   <i name="NELECT">      3.00000000</i>
   <i type="int" name="TURBO">     0</i>
   <i type="int" name="IRESTART">     0</i>
   <i type="int" name="NREBOOT">     0</i>
   <i type="int" name="NMIN">     0</i>
   <i name="EREF">      0.00000000</i>
   <separator name="electronic smearing" >
    <i type="int" name="ISMEAR">    -5</i>
    <i name="SIGMA">      0.07000000</i>
    <i name="KSPACING">      0.50000000</i>
    <i type="logical" name="KGAMMA"> T  </i>
   </separator>
   <separator name="electronic projectors" >
    <i type="logical" name="LREAL"> F  </i>
    <v name="ROPT">      0.00000000</v>
    <i type="int" name="LMAXPAW">  -100</i>
    <i type="int" name="LMAXMIX">     2</i>
    <i type="logical" name="NLSPLINE"> F  </i>
   </separator>
   <separator name="electronic startup" >
    <i type="int" name="ISTART">     1</i>
    <i type="int" name="ICHARG">     0</i>
    <i type="int" name="INIWAV">     1</i>
   </separator>
   <separator name="electronic spin" >
    <i type="int" name="ISPIN">     2</i>
    <i type="logical" name="LNONCOLLINEAR"> F  </i>
    <v name="MAGMOM">      1.00000000</v>
    <i name="NUPDOWN">     -1.00000000</i>
    <i type="logical" name="LSORBIT"> F  </i>
    <v name="SAXIS">      0.00000000      0.00000000      1.00000000</v>
    <i type="logical" name="LSPIRAL"> F  </i>
    <v name="QSPIRAL">      0.00000000      0.00000000      0.00000000</v>
    <i type="logical" name="LZEROZ"> F  </i>
   </separator>
   <separator name="electronic exchange-correlation" >
    <i type="logical" name="LASPH"> F  </i>
    <i type="logical" name="LMETAGGA"> F  </i>
   </separator>
   <separator name="electronic convergence" >
    <i type="int" name="NELM">    60</i>
    <i type="int" name="NELMDL">     0</i>
    <i type="int" name="NELMIN">     2</i>
    <i name="ENINI">    300.37500000</i>
    <separator name="electronic convergence detail" >
     <i type="logical" name="LDIAG"> T  </i>
     <i type="logical" name="LSUBROT"> F  </i>
     <i name="WEIMIN">      0.00000000</i>
     <i name="EBREAK">      0.00000000</i>
     <i name="DEPER">      0.30000000</i>
     <i type="int" name="NRMM">     4</i>
     <i name="TIME">      0.40000000</i>
    </separator>
   </separator>
   <separator name="electronic mixer" >
    <i name="AMIX">      0.40000000</i>
    <i name="BMIX">      1.00000000</i>
    <i name="AMIN">      0.10000000</i>
    <i name="AMIX_MAG">      1.60000000</i>
    <i name="BMIX_MAG">      1.00000000</i>
    <separator name="electronic mixer details" >
     <i type="int" name="IMIX">     4</i>
     <i type="logical" name="MIXFIRST"> F  </i>
     <i type="int" name="MAXMIX">   -45</i>
     <i name="WC">    100.00000000</i>
     <i type="int" name="INIMIX">     1</i>
     <i type="int" name="MIXPRE">     1</i>
     <i type="int" name="MREMOVE">     5</i>
    </separator>
   </separator>
   <separator name="electronic dipolcorrection" >
    <i type="logical" name="LDIPOL"> F  </i>
    <i type="logical" name="LMONO"> F  </i>
    <i type="int" name="IDIPOL">     0</i>
    <i name="EPSILON">      1.00000000</i>
    <v name="DIPOL">   -100.00000000   -100.00000000   -100.00000000</v>
    <i name="EFIELD">      0.00000000</i>
   </separator>
  </separator>
  <separator name="grids" >
   <i type="int" name="NGX">    16</i>
   <i type="int" name="NGY">    16</i>
   <i type="int" name="NGZ">    16</i>
   <i type="int" name="NGXF">    24</i>
   <i type="int" name="NGYF">    24</i>
   <i type="int" name="NGZF">    24</i>
   <i type="logical" name="ADDGRID"> F  </i>
  </separator>
  <separator name="ionic" >
   <i type="int" name="NSW">     0</i>
   <i type="int" name="IBRION">    -1</i>
   <i type="int" name="MDALGO">     0</i>
   <i type="int" name="ISIF">     2</i>
   <i name="PSTRESS">      0.00000000</i>
   <i name="EDIFFG">      0.00001000</i>
   <i type="int" name="NFREE">     0</i>
   <i name="POTIM">      0.50000000</i>
   <i name="SMASS">     -3.00000000</i>
   <i name="SCALEE">      1.00000000</i>
  </separator>
  <separator name="ionic md" >
   <i name="TEBEG">      0.00010000</i>
   <i name="TEEND">      0.00010000</i>
   <i type="int" name="NBLOCK">     1</i>
   <i type="int" name="KBLOCK">     1</i>
   <i type="int" name="NPACO">   256</i>
   <i name="APACO">     16.00000000</i>
  </separator>
  <separator name="symmetry" >
   <i type="int" name="ISYM">     2</i>
   <i name="SYMPREC">      0.00001000</i>
  </separator>
  <separator name="dos" >
   <i type="int" name="LORBIT">     0</i>
   <v name="RWIGS">     -1.00000000</v>
   <i type="int" name="NEDOS">   301</i>
   <i name="EMIN">     10.00000000</i>
   <i name="EMAX">    -10.00000000</i>
   <i name="EFERMI">      0.00000000</i>
  </separator>
  <separator name="writing" >
   <i type="int" name="NWRITE">     2</i>
   <i type="logical" name="LWAVE"> T  </i>
   <i type="logical" name="LDOWNSAMPLE"> F  </i>
   <i type="logical" name="LCHARG"> T  </i>
   <i type="logical" name="LPARD"> F  </i>
   <i type="logical" name="LVTOT"> F  </i>
   <i type="logical" name="LVHAR"> F  </i>
   <i type="logical" name="LELF"> F  </i>
   <i type="logical" name="LOPTICS"> F  </i>
   <v name="STM">      0.00000000      0.00000000      0.00000000      0.00000000      0.00000000      0.00000000      0.00000000</v>
  </separator>
  <separator name="performance" >
   <i type="int" name="NPAR">     4</i>
   <i type="int" name="NSIM">     4</i>
   <i type="int" name="NBLK">    -1</i>
   <i type="logical" name="LPLANE"> T  </i>
   <i type="logical" name="LSCALAPACK"> T  </i>
   <i type="logical" name="LSCAAWARE"> F  </i>
   <i type="logical" name="LSCALU"> F  </i>
   <i type="logical" name="LASYNC"> F  </i>
   <i type="logical" name="LORBITALREAL"> F  </i>
  </separator>
  <separator name="miscellaneous" >
   <i type="int" name="IDIOT">     3</i>
   <i type="int" name="ISPECIAL">     0</i>
   <i type="logical" name="LMUSIC"> F  </i>
   <v name="POMASS">     26.98200000</v>
   <v name="DARWINR">      0.00000000</v>
   <v name="DARWINV">      1.00000000</v>
   <i type="logical" name="LCORR"> T  </i>
  </separator>
  <i type="logical" name="GGA_COMPAT"> T  </i>
  <i type="logical" name="LBERRY"> F  </i>
  <i type="int" name="ICORELEVEL">     0</i>
  <i type="logical" name="LDAU"> F  </i>
  <i type="int" name="I_CONSTRAINED_M">     0</i>
  <separator name="electronic exchange-correlation" >
   <i type="string" name="GGA">--</i>
   <i type="int" name="VOSKOWN">     0</i>
   <i type="logical" name="LHFCALC"> F  </i>
   <i type="string" name="PRECFOCK"></i>
   <i type="logical" name="LSYMGRAD"> F  </i>
   <i type="logical" name="LHFONE"> F  </i>
   <i type="logical" name="LRHFCALC"> F  </i>
   <i type="logical" name="LTHOMAS"> F  </i>
   <i type="logical" name="LMODELHF"> F  </i>
   <i name="ENCUT4O">     -1.00000000</i>
   <i type="int" name="EXXOEP">     0</i>
   <i type="int" name="FOURORBIT">     0</i>
   <i name="AEXX">      0.00000000</i>
   <i name="HFALPHA">      0.00000000</i>
   <i name="MCALPHA">      0.00000000</i>
   <i name="ALDAX">      1.00000000</i>
   <i name="AGGAX">      1.00000000</i>
   <i name="ALDAC">      1.00000000</i>
   <i name="AGGAC">      1.00000000</i>
   <i type="int" name="NKREDX">     1</i>
   <i type="int" name="NKREDY">     1</i>
   <i type="int" name="NKREDZ">     1</i>
   <i type="logical" name="SHIFTRED"> F  </i>
   <i type="logical" name="ODDONLY"> F  </i>
   <i type="logical" name="EVENONLY"> F  </i>
   <i type="int" name="LMAXFOCK">     0</i>
   <i type="int" name="NMAXFOCKAE">     0</i>
   <i type="logical" name="LFOCKAEDFT"> F  </i>
   <i name="HFSCREEN">      0.00000000</i>
   <i name="HFSCREENC">      0.00000000</i>
   <i type="int" name="NBANDSGWLOW">     0</i>
  </separator>
  <separator name="vdW DFT" >
   <i type="logical" name="LUSE_VDW"> F  </i>
   <i name="Zab_VDW">     -0.84910000</i>
   <i name="PARAM1">      0.12340000</i>
   <i name="PARAM2">      1.00000000</i>
   <i name="PARAM3">      0.00000000</i>
  </separator>
  <separator name="model GW" >
   <i type="int" name="MODEL_GW">     0</i>
   <i name="MODEL_EPS0">      9.84512590</i>
   <i name="MODEL_ALPHA">      1.00000000</i>
  </separator>
  <separator name="linear response parameters" >
   <i type="logical" name="LEPSILON"> F  </i>
   <i type="logical" name="LRPA"> F  </i>
   <i type="logical" name="LNABLA"> F  </i>
   <i type="logical" name="LVEL"> F  </i>
   <i type="int" name="KINTER">     0</i>
   <i name="CSHIFT">      0.10000000</i>
   <i name="OMEGAMAX">     -1.00000000</i>
   <i name="DEG_THRESHOLD">      0.00200000</i>
   <i name="RTIME">     -0.10000000</i>
   <i name="WPLASMAI">      0.00000000</i>
   <v name="DFIELD">      0.00000000      0.00000000      0.00000000</v>
   <v name="WPLASMA">      0.00000000      0.00000000      0.00000000      0.00000000      0.00000000      0.00000000      0.00000000      0.00000000      0.00000000</v>
  </separator>
  <separator name="orbital magnetization" >
   <i type="logical" name="NUCIND"> F  </i>
   <v name="MAGPOS">      0.00000000      0.00000000      0.00000000</v>
   <i type="logical" name="LNICSALL"> T  </i>
   <i type="logical" name="ORBITALMAG"> F  </i>
   <i type="logical" name="LMAGBLOCH"> F  </i>
   <i type="logical" name="LCHIMAG"> F  </i>
   <i type="logical" name="LGAUGE"> T  </i>
   <i type="int" name="MAGATOM">     0</i>
   <v name="MAGDIPOL">      0.00000000      0.00000000      0.00000000</v>
   <v name="AVECCONST">      0.00000000      0.00000000      0.00000000</v>
  </separator>
  <separator name="response functions" >
   <i type="logical" name="LADDER"> F  </i>
   <i type="logical" name="LRPAFORCE"> F  </i>
   <i type="logical" name="LFXC"> F  </i>
   <i type="logical" name="LHARTREE"> T  </i>
   <i type="int" name="IBSE">     0</i>
   <v type="int" name="KPOINT">    -1     0     0     0</v>
   <i type="logical" name="LTCTE"> F  </i>
   <i type="logical" name="LTETE"> F  </i>
   <i type="logical" name="LTRIPLET"> F  </i>
   <i type="logical" name="LFXCEPS"> F  </i>
   <i type="logical" name="LFXHEG"> F  </i>
   <i type="int" name="NATURALO">     2</i>
   <i type="logical" name="L2ORDER"> F  </i>
   <i type="logical" name="LMP2LT"> F  </i>
   <i type="logical" name="LUSEW"> F  </i>
   <i name="ENCUTGW">     -2.00000000</i>
   <i name="ENCUTGWSOFT">     -2.00000000</i>
   <i name="ENCUTLF">     -1.00000000</i>
   <i type="int" name="LMAXMP2">    -1</i>
   <i name="SCISSOR">      0.00000000</i>
   <i type="int" name="NOMEGA">     0</i>
   <i type="int" name="NOMEGAR">     0</i>
   <i type="int" name="NBANDSGW">    -1</i>
   <i type="int" name="NBANDSO">    -1</i>
   <i type="int" name="NBANDSV">    -1</i>
   <i type="int" name="NELM">     1</i>
   <i type="int" name="NELMHF">     1</i>
   <i type="int" name="DIM">     3</i>
   <i type="int" name="ANTIRES">     0</i>
   <i name="OMEGAMAX">    -30.00000000</i>
   <i name="OMEGAMIN">    -30.00000000</i>
   <i name="OMEGATL">   -200.00000000</i>
   <i type="int" name="OMEGAGRID">   140</i>
   <i name="CSHIFT">     -0.10000000</i>
   <i type="logical" name="SELFENERGY"> F  </i>
   <i type="logical" name="LSPECTRAL"> F  </i>
   <i type="logical" name="LSPECTRALGW"> F  </i>
   <i type="logical" name="LSINGLES"> F  </i>
   <i type="logical" name="LFERMIGW"> F  </i>
   <i type="logical" name="ODDONLYGW"> F  </i>
   <i type="logical" name="EVENONLYGW"> F  </i>
   <i type="int" name="NKREDLFX">     1</i>
   <i type="int" name="NKREDLFY">     1</i>
   <i type="int" name="NKREDLFZ">     1</i>
   <i type="int" name="MAXMEM">  2800</i>
   <i type="int" name="TELESCOPE">     0</i>
   <i type="int" name="TAUPAR">     1</i>
   <i type="int" name="OMEGAPAR">    -1</i>
   <i name="LAMBDA">      1.00000000</i>
  </separator>
  <separator name="External order field" >
   <i name="OFIELD_KAPPA">      0.00000000</i>
   <v name="OFIELD_K">      0.00000000      0.00000000      0.00000000</v>
   <i name="OFIELD_Q6_NEAR">      0.00000000</i>
   <i name="OFIELD_Q6_FAR">      0.00000000</i>
   <i name="OFIELD_A">      0.00000000</i>
  </separator>
 </parameters>
 <atominfo>
  <atoms>       1 </atoms>
  <types>       1 </types>
  <array name="atoms" >
   <dimension dim="1">ion</dimension>
   <field type="string">element</field>
   <field type="int">atomtype</field>
   <set>
    <rc><c>Al</c><c>   1</c></rc>
   </set>
  </array>
  <array name="atomtypes" >
   <dimension dim="1">type</dimension>
   <field type="int">atomspertype</field>
   <field type="string">element</field>
   <field>mass</field>
   <field>valence</field>
   <field type="string">pseudopotential</field>
   <set>
    <rc><c>   1</c><c>Al</c><c>     26.98200000</c><c>      3.00000000</c><c> PAW_PBE Al 04Jan2001                   </c></rc>
   </set>
  </array>
 </atominfo>
 <structure name="initialpos" >
  <crystal>
   <varray name="basis" >
    <v>       2.01687977       0.00000000       2.01687977 </v>
    <v>       2.01687977       2.01687977       0.00000000 </v>
    <v>       0.00000000       2.01687977       2.01687977 </v>
   </varray>
   <i name="volume">     16.40854317 </i>
   <varray name="rec_basis" >
    <v>       0.24790769      -0.24790769       0.24790769 </v>
    <v>       0.24790769       0.24790769      -0.24790769 </v>
    <v>      -0.24790769       0.24790769       0.24790769 </v>
   </varray>
  </crystal>
  <varray name="positions" >
   <v>       0.00000000       0.00000000       0.00000000 </v>
  </varray>
 </structure>
 <calculation>
  <scstep>
   <time name="dav">    0.09    0.09</time>
   <time name="total">    0.11    0.11</time>
   <energy>
    <i name="alphaZ">     -0.20469898 </i>
    <i name="ewald">    -73.65205303 </i>
    <i name="hartreedc">     -0.10440805 </i>
    <i name="XCdc">    -26.12000769 </i>
    <i name="pawpsdc">     35.82525816 </i>
    <i name="pawaedc">     -3.88623073 </i>
    <i name="eentropy">      0.00000000 </i>
    <i name="bandstr">     10.87184403 </i>
    <i name="atom">     53.53763000 </i>
    <i name="e_fr_energy">     -3.73266628 </i>
    <i name="e_wo_entrp">     -3.73266628 </i>
    <i name="e_0_energy">     -3.73266628 </i>
   </energy>
  </scstep>
  <scstep>
   <time name="dav">    0.09    0.09</time>
   <time name="total">    0.10    0.10</time>
   <energy>
    <i name="e_fr_energy">     -3.73268323 </i>
    <i name="e_wo_entrp">     -3.73268323 </i>
    <i name="e_0_energy">     -3.73268323 </i>
   </energy>
  </scstep>
  <scstep>
   <time name="dav">    0.08    0.08</time>
   <time name="total">    0.09    0.09</time>
   <energy>
    <i name="e_fr_energy">     -3.73269014 </i>
    <i name="e_wo_entrp">     -3.73269014 </i>
    <i name="e_0_energy">     -3.73269014 </i>
   </energy>
  </scstep>
  <scstep>
   <time name="dav">    0.09    0.09</time>
   <time name="total">    0.10    0.10</time>
   <energy>
    <i name="e_fr_energy">     -3.73269009 </i>
    <i name="e_wo_entrp">     -3.73269009 </i>
    <i name="e_0_energy">     -3.73269009 </i>
   </energy>
  </scstep>
  <scstep>
   <time name="dav">    0.08    0.08</time>
   <time name="total">    0.09    0.09</time>
   <energy>
    <i name="e_fr_energy">     -3.73268997 </i>
    <i name="e_wo_entrp">     -3.73268997 </i>
    <i name="e_0_energy">     -3.73268997 </i>
   </energy>
  </scstep>
  <scstep>
   <time name="dav">    0.05    0.06</time>
   <time name="total">    0.06    0.06</time>
   <energy>
    <i name="alphaZ">     -0.20469898 </i>
    <i name="ewald">    -73.65205303 </i>
    <i name="hartreedc">     -0.10482359 </i>
    <i name="XCdc">    -26.11902364 </i>
    <i name="pawpsdc">     35.69836552 </i>
    <i name="pawaedc">     -3.75650360 </i>
    <i name="eentropy">      0.00000000 </i>
    <i name="bandstr">     10.86841736 </i>
    <i name="atom">     53.53763000 </i>
    <i name="e_fr_energy">     -3.73268996 </i>
    <i name="e_wo_entrp">     -3.73268996 </i>
    <i name="e_0_energy">     -3.73268996 </i>
   </energy>
  </scstep>
  <structure>
   <crystal>
    <varray name="basis" >
     <v>       2.01687977       0.00000000       2.01687977 </v>
     <v>       2.01687977       2.01687977       0.00000000 </v>
     <v>       0.00000000       2.01687977       2.01687977 </v>
    </varray>
    <i name="volume">     16.40854317 </i>
    <varray name="rec_basis" >
     <v>       0.24790769      -0.24790769       0.24790769 </v>
     <v>       0.24790769       0.24790769      -0.24790769 </v>
     <v>      -0.24790769       0.24790769       0.24790769 </v>
    </varray>
   </crystal>
   <varray name="positions" >
    <v>       0.00000000       0.00000000       0.00000000 </v>
   </varray>
  </structure>
  <varray name="forces" >
   <v>       0.00000000       0.00000000       0.00000000 </v>
  </varray>
  <varray name="stress" >
   <v>      -3.19383556      -0.00000000       0.00000000 </v>
   <v>       0.00000000      -3.19383556       0.00000000 </v>
   <v>       0.00000000      -0.00000000      -3.19383556 </v>
  </varray>
  <energy>
   <i name="e_fr_energy">     -3.73268996 </i>
   <i name="e_wo_entrp">     -3.73268996 </i>
   <i name="e_0_energy">      0.00000000 </i>
  </energy>
  <time name="totalsc">    0.60    0.61</time>
  <eigenvalues>
   <array>
    <dimension dim="1">band</dimension>
    <dimension dim="2">kpoint</dimension>
    <dimension dim="3">spin</dimension>
    <field>eigene</field>
    <field>occ</field>
    <set>
     <set comment="spin 1">
      <set comment="kpoint 1">
       <r>   -3.1144    1.0000 </r>
       <r>   20.7473    0.0000 </r>
       <r>   20.7473    0.0000 </r>
       <r>   20.7473    0.0000 </r>
       <r>   22.2422    0.0000 </r>
       <r>   22.2422    0.0000 </r>
       <r>   22.2423    0.0000 </r>
       <r>   24.5694    0.0000 </r>
      </set>
      <set comment="kpoint 2">
       <r>   -2.8416    1.0000 </r>
       <r>   17.4357    0.0000 </r>
       <r>   20.0183    0.0000 </r>
       <r>   20.0183    0.0000 </r>
       <r>   22.8963    0.0000 </r>
       <r>   23.3844    0.0000 </r>
       <r>   23.3845    0.0000 </r>
       <r>   26.2951    0.0000 </r>
      </set>
      <set comment="kpoint 3">
       <r>   -2.0267    1.0000 </r>
       <r>   13.4146    0.0000 </r>
       <r>   19.2528    0.0000 </r>
       <r>   19.2528    0.0000 </r>
       <r>   22.6035    0.0000 </r>
       <r>   23.7920    0.0000 </r>
       <r>   23.7920    0.0000 </r>
       <r>   25.8775    0.0000 </r>
      </set>
      <set comment="kpoint 4">
       <r>   -0.6787    1.0000 </r>
       <r>    9.7063   -0.0456 </r>
       <r>   18.9003    0.0000 </r>
       <r>   18.9003    0.0000 </r>
       <r>   22.0240    0.0000 </r>
       <r>   22.0241    0.0000 </r>
       <r>   22.4325    0.0000 </r>
       <r>   26.0171    0.0000 </r>
      </set>
      <set comment="kpoint 5">
       <r>    1.1875    1.0000 </r>
       <r>    6.4084    1.0570 </r>
       <r>   18.9957    0.0000 </r>
       <r>   18.9957    0.0000 </r>
       <r>   20.5654    0.0000 </r>
       <r>   20.5654    0.0000 </r>
       <r>   22.6456    0.0000 </r>
       <r>   24.4800    0.0000 </r>
      </set>
      <set comment="kpoint 6">
       <r>    3.4445    1.0000 </r>
       <r>    3.6733    1.0000 </r>
       <r>   19.5271    0.0000 </r>
       <r>   19.5272    0.0000 </r>
       <r>   19.5831    0.0000 </r>
       <r>   19.5832    0.0000 </r>
       <r>   23.2264    0.0000 </r>
       <r>   23.4462    0.0000 </r>
      </set>
      <set comment="kpoint 7">
       <r>   -2.7508    1.0000 </r>
       <r>   18.6116    0.0000 </r>
       <r>   18.6117    0.0000 </r>
       <r>   18.8867    0.0000 </r>
       <r>   21.4498    0.0000 </r>
       <r>   24.0717    0.0000 </r>
       <r>   24.9124    0.0000 </r>
       <r>   24.9125    0.0000 </r>
      </set>
      <set comment="kpoint 8">
       <r>   -2.1170    1.0000 </r>
       <r>   14.8939    0.0000 </r>
       <r>   17.6270    0.0000 </r>
       <r>   19.0357    0.0000 </r>
       <r>   21.4779    0.0000 </r>
       <r>   22.2662    0.0000 </r>
       <r>   25.2871    0.0000 </r>
       <r>   26.2509    0.0000 </r>
      </set>
      <set comment="kpoint 9">
       <r>   -0.9474    1.0000 </r>
       <r>   11.1048   -0.0091 </r>
       <r>   17.0977    0.0000 </r>
       <r>   18.7000    0.0000 </r>
       <r>   19.4392    0.0000 </r>
       <r>   24.3263    0.0000 </r>
       <r>   24.8242    0.0000 </r>
       <r>   25.2679    0.0000 </r>
      </set>
      <set comment="kpoint 10">
       <r>    0.7451    1.0000 </r>
       <r>    7.6798    0.6412 </r>
       <r>   17.0320    0.0000 </r>
       <r>   17.7370    0.0000 </r>
       <r>   18.7225    0.0000 </r>
       <r>   23.2905    0.0000 </r>
       <r>   25.0453    0.0000 </r>
       <r>   26.3341    0.0000 </r>
      </set>
      <set comment="kpoint 11">
       <r>    2.9384    1.0000 </r>
       <r>    4.6929    1.0000 </r>
       <r>   16.5372    0.0000 </r>
       <r>   17.4296    0.0000 </r>
       <r>   19.1647    0.0000 </r>
       <r>   22.1433    0.0000 </r>
       <r>   25.0753    0.0000 </r>
       <r>   25.7692    0.0000 </r>
      </set>
      <set comment="kpoint 12">
       <r>    2.1545    1.0000 </r>
       <r>    5.6345    1.0439 </r>
       <r>   15.8105    0.0000 </r>
       <r>   18.2928    0.0000 </r>
       <r>   20.0850    0.0000 </r>
       <r>   21.4422    0.0000 </r>
       <r>   24.3648    0.0000 </r>
       <r>   26.5782    0.0000 </r>
      </set>
      <set comment="kpoint 13">
       <r>    0.1241    1.0000 </r>
       <r>    8.7700    0.2050 </r>
       <r>   15.5698    0.0000 </r>
       <r>   19.6091    0.0000 </r>
       <r>   21.1949    0.0000 </r>
       <r>   21.4594    0.0000 </r>
       <r>   23.9848    0.0000 </r>
       <r>   27.5215    0.0000 </r>
      </set>
      <set comment="kpoint 14">
       <r>   -1.3961    1.0000 </r>
       <r>   12.3038    0.0000 </r>
       <r>   15.8351    0.0000 </r>
       <r>   21.1726    0.0000 </r>
       <r>   21.5475    0.0000 </r>
       <r>   23.2366    0.0000 </r>
       <r>   23.9320    0.0000 </r>
       <r>   24.7910    0.0000 </r>
      </set>
      <set comment="kpoint 15">
       <r>   -2.3883    1.0000 </r>
       <r>   15.8222    0.0000 </r>
       <r>   16.9203    0.0000 </r>
       <r>   21.4593    0.0000 </r>
       <r>   22.5730    0.0000 </r>
       <r>   23.7285    0.0000 </r>
       <r>   23.9901    0.0000 </r>
       <r>   24.9176    0.0000 </r>
      </set>
      <set comment="kpoint 16">
       <r>   -1.6660    1.0000 </r>
       <r>   16.4649    0.0000 </r>
       <r>   16.4649    0.0000 </r>
       <r>   16.5351    0.0000 </r>
       <r>   18.8570    0.0000 </r>
       <r>   19.9002    0.0000 </r>
       <r>   28.4587    0.0000 </r>
       <r>   28.4587    0.0000 </r>
      </set>
      <set comment="kpoint 17">
       <r>   -0.6789    1.0000 </r>
       <r>   12.9113    0.0000 </r>
       <r>   15.7710    0.0000 </r>
       <r>   16.4935    0.0000 </r>
       <r>   17.2117    0.0000 </r>
       <r>   20.6248    0.0000 </r>
       <r>   27.8989    0.0000 </r>
       <r>   29.1221    0.0000 </r>
      </set>
      <set comment="kpoint 18">
       <r>    0.8329    1.0000 </r>
       <r>    9.4229    0.0184 </r>
       <r>   14.6372    0.0000 </r>
       <r>   15.5442    0.0000 </r>
       <r>   17.2223    0.0000 </r>
       <r>   23.1484    0.0000 </r>
       <r>   26.4187    0.0000 </r>
       <r>   29.0288    0.0000 </r>
      </set>
      <set comment="kpoint 19">
       <r>    2.8499    1.0000 </r>
       <r>    6.3141    1.0490 </r>
       <r>   13.2444    0.0000 </r>
       <r>   15.7840    0.0000 </r>
       <r>   17.5564    0.0000 </r>
       <r>   25.1834    0.0000 </r>
       <r>   26.0458    0.0000 </r>
       <r>   28.5159    0.0000 </r>
      </set>
      <set comment="kpoint 20">
       <r>    3.6316    1.0000 </r>
       <r>    5.3672    1.0038 </r>
       <r>   12.3500    0.0000 </r>
       <r>   16.4905    0.0000 </r>
       <r>   18.3574    0.0000 </r>
       <r>   24.3474    0.0000 </r>
       <r>   26.8908    0.0000 </r>
       <r>   29.8605    0.0000 </r>
      </set>
      <set comment="kpoint 21">
       <r>    1.4516    1.0000 </r>
       <r>    8.2830    0.4221 </r>
       <r>   11.9998    0.0000 </r>
       <r>   17.6636    0.0000 </r>
       <r>   19.6314    0.0000 </r>
       <r>   23.9399    0.0000 </r>
       <r>   26.3534    0.0000 </r>
       <r>   27.1248    0.0000 </r>
      </set>
      <set comment="kpoint 22">
       <r>   -0.2324    1.0000 </r>
       <r>   11.1423    0.0000 </r>
       <r>   12.6453    0.0000 </r>
       <r>   19.2931    0.0000 </r>
       <r>   21.3266    0.0000 </r>
       <r>   23.5608    0.0000 </r>
       <r>   24.5762    0.0000 </r>
       <r>   25.5622    0.0000 </r>
      </set>
      <set comment="kpoint 23">
       <r>    0.1232    1.0000 </r>
       <r>   13.9732    0.0000 </r>
       <r>   14.7669    0.0000 </r>
       <r>   14.9161    0.0000 </r>
       <r>   14.9161    0.0000 </r>
       <r>   18.4701    0.0000 </r>
       <r>   30.5130    0.0000 </r>
       <r>   31.6557    0.0000 </r>
      </set>
      <set comment="kpoint 24">
       <r>    1.4481    1.0000 </r>
       <r>   11.5148   -0.0033 </r>
       <r>   11.9661    0.0000 </r>
       <r>   14.5312    0.0000 </r>
       <r>   15.8452    0.0000 </r>
       <r>   19.4495    0.0000 </r>
       <r>   29.7978    0.0000 </r>
       <r>   32.0559    0.0000 </r>
      </set>
      <set comment="kpoint 25">
       <r>    3.2749    1.0000 </r>
       <r>    8.3935    0.3683 </r>
       <r>   10.3485    0.0000 </r>
       <r>   14.6131    0.0000 </r>
       <r>   16.2171    0.0000 </r>
       <r>   22.3059    0.0000 </r>
       <r>   28.5954    0.0000 </r>
       <r>   31.2285    0.0000 </r>
      </set>
      <set comment="kpoint 26">
       <r>    5.4479    1.0000 </r>
       <r>    5.7247    1.0238 </r>
       <r>    9.3092    0.0000 </r>
       <r>   15.1615    0.0000 </r>
       <r>   16.9012    0.0000 </r>
       <r>   25.7145    0.0000 </r>
       <r>   27.6764    0.0000 </r>
       <r>   30.0314    0.0000 </r>
      </set>
      <set comment="kpoint 27">
       <r>    3.2873    1.0000 </r>
       <r>    7.7924    0.8881 </r>
       <r>    9.3052    0.0000 </r>
       <r>   16.1787    0.0000 </r>
       <r>   18.0484    0.0000 </r>
       <r>   27.0135    0.0000 </r>
       <r>   27.3063    0.0000 </r>
       <r>   28.5038    0.0000 </r>
      </set>
      <set comment="kpoint 28">
       <r>    2.5786    1.0000 </r>
       <r>    9.6326   -0.0375 </r>
       <r>   13.6989    0.0000 </r>
       <r>   13.9884    0.0000 </r>
       <r>   13.9884    0.0000 </r>
       <r>   17.5193    0.0000 </r>
       <r>   32.4526    0.0000 </r>
       <r>   34.0329    0.0000 </r>
      </set>
      <set comment="kpoint 29">
       <r>    4.1830    1.0000 </r>
       <r>    7.8954    0.6133 </r>
       <r>   10.9231    0.0000 </r>
       <r>   13.9125    0.0000 </r>
       <r>   15.1573    0.0000 </r>
       <r>   18.8280    0.0000 </r>
       <r>   32.0219    0.0000 </r>
       <r>   33.9041    0.0000 </r>
      </set>
      <set comment="kpoint 30">
       <r>    5.7879    1.0000 </r>
       <r>    7.1111    1.0853 </r>
       <r>    8.1521    0.0000 </r>
       <r>   14.3026    0.0000 </r>
       <r>   15.8711    0.0000 </r>
       <r>   22.0122    0.0000 </r>
       <r>   30.9474    0.0000 </r>
       <r>   31.5641    0.0000 </r>
      </set>
      <set comment="kpoint 31">
       <r>    5.1217    1.0000 </r>
       <r>    6.4609    1.0872 </r>
       <r>   13.3412    0.0000 </r>
       <r>   13.6795    0.0000 </r>
       <r>   13.6795    0.0000 </r>
       <r>   17.1898    0.0000 </r>
       <r>   33.6276    0.0000 </r>
       <r>   35.1638    0.0000 </r>
      </set>
      <set comment="kpoint 32">
       <r>   -1.3062    1.0000 </r>
       <r>   13.4906    0.0000 </r>
       <r>   14.8028    0.0000 </r>
       <r>   19.1540    0.0000 </r>
       <r>   20.1114    0.0000 </r>
       <r>   21.9501    0.0000 </r>
       <r>   25.5937    0.0000 </r>
       <r>   26.8883    0.0000 </r>
      </set>
      <set comment="kpoint 33">
       <r>    0.0349    1.0000 </r>
       <r>   10.3005   -0.0548 </r>
       <r>   13.9326    0.0000 </r>
       <r>   17.1642    0.0000 </r>
       <r>   20.4404    0.0000 </r>
       <r>   23.5175    0.0000 </r>
       <r>   24.2604    0.0000 </r>
       <r>   27.3378    0.0000 </r>
      </set>
      <set comment="kpoint 34">
       <r>    1.8906    1.0000 </r>
       <r>    7.0719    0.8949 </r>
       <r>   13.9582    0.0000 </r>
       <r>   15.6364    0.0000 </r>
       <r>   20.6379    0.0000 </r>
       <r>   22.3322    0.0000 </r>
       <r>   26.6074    0.0000 </r>
       <r>   27.9152    0.0000 </r>
      </set>
      <set comment="kpoint 35">
       <r>    4.1171    1.0000 </r>
       <r>    4.3781    1.0000 </r>
       <r>   14.3391    0.0000 </r>
       <r>   14.7591    0.0000 </r>
       <r>   21.0749    0.0000 </r>
       <r>   21.4588    0.0000 </r>
       <r>   27.4685    0.0000 </r>
       <r>   28.8886    0.0000 </r>
      </set>
      <set comment="kpoint 36">
       <r>    0.4784    1.0000 </r>
       <r>   11.8163    0.0000 </r>
       <r>   13.1544    0.0000 </r>
       <r>   14.3910    0.0000 </r>
       <r>   18.5249    0.0000 </r>
       <r>   20.6395    0.0000 </r>
       <r>   27.1439    0.0000 </r>
       <r>   30.8960    0.0000 </r>
      </set>
      <set comment="kpoint 37">
       <r>    2.1508    1.0000 </r>
       <r>    8.9489    0.1248 </r>
       <r>   12.3484    0.0000 </r>
       <r>   12.8969    0.0000 </r>
       <r>   19.2299    0.0000 </r>
       <r>   22.8431    0.0000 </r>
       <r>   25.7397    0.0000 </r>
       <r>   31.2051    0.0000 </r>
      </set>
      <set comment="kpoint 38">
       <r>    4.3083    1.0000 </r>
       <r>    6.0500    1.0755 </r>
       <r>   11.3211    0.0000 </r>
       <r>   13.0511    0.0000 </r>
       <r>   19.7800    0.0000 </r>
       <r>   24.3984    0.0000 </r>
       <r>   26.2315    0.0000 </r>
       <r>   29.9104    0.0000 </r>
      </set>
      <set comment="kpoint 39">
       <r>    3.5451    1.0000 </r>
       <r>    6.9272    1.0141 </r>
       <r>   10.6506    0.0000 </r>
       <r>   13.9272    0.0000 </r>
       <r>   20.7092    0.0000 </r>
       <r>   23.6859    0.0000 </r>
       <r>   26.8870    0.0000 </r>
       <r>   29.3223    0.0000 </r>
      </set>
      <set comment="kpoint 40">
       <r>    1.5390    1.0000 </r>
       <r>    9.4671   -0.0546 </r>
       <r>   10.9866    0.0000 </r>
       <r>   15.3111    0.0000 </r>
       <r>   22.0321    0.0000 </r>
       <r>   22.8077    0.0000 </r>
       <r>   24.3798    0.0000 </r>
       <r>   29.3327    0.0000 </r>
      </set>
      <set comment="kpoint 41">
       <r>    2.9272    1.0000 </r>
       <r>    9.9478   -0.0929 </r>
       <r>   10.8102    0.0000 </r>
       <r>   12.2966    0.0000 </r>
       <r>   17.5425    0.0000 </r>
       <r>   19.7617    0.0000 </r>
       <r>   29.2729    0.0000 </r>
       <r>   33.5083    0.0000 </r>
      </set>
      <set comment="kpoint 42">
       <r>    4.8671    1.0000 </r>
       <r>    8.1778    0.6469 </r>
       <r>    8.6973    0.0000 </r>
       <r>   12.0170    0.0000 </r>
       <r>   18.5892    0.0000 </r>
       <r>   22.2966    0.0000 </r>
       <r>   28.1199    0.0000 </r>
       <r>   30.9162    0.0000 </r>
      </set>
      <set comment="kpoint 43">
       <r>    5.6761    1.0000 </r>
       <r>    6.7893    1.0150 </r>
       <r>    8.2680    0.0000 </r>
       <r>   12.7031    0.0000 </r>
       <r>   19.4702    0.0000 </r>
       <r>   25.6995    0.0000 </r>
       <r>   26.7674    0.0000 </r>
       <r>   28.0546    0.0000 </r>
      </set>
      <set comment="kpoint 44">
       <r>    5.4546    1.0000 </r>
       <r>    6.8089    1.0995 </r>
       <r>   10.4745    0.0000 </r>
       <r>   11.9516    0.0000 </r>
       <r>   17.2133    0.0000 </r>
       <r>   19.4569    0.0000 </r>
       <r>   31.6875    0.0000 </r>
       <r>   31.7873    0.0000 </r>
      </set>
      <set comment="kpoint 45">
       <r>    3.9677    1.0000 </r>
       <r>    8.4622    0.4781 </r>
       <r>    9.8791    0.0000 </r>
       <r>   11.1484    0.0000 </r>
       <r>   21.8797    0.0000 </r>
       <r>   23.2826    0.0000 </r>
       <r>   24.5605    0.0000 </r>
       <r>   30.2346    0.0000 </r>
      </set>
      <set comment="kpoint 46">
       <r>    6.1092    1.0000 </r>
       <r>    6.3602    1.0508 </r>
       <r>    9.6607    0.0000 </r>
       <r>   10.3525    0.0000 </r>
       <r>   22.8714    0.0000 </r>
       <r>   23.3205    0.0000 </r>
       <r>   25.8869    0.0000 </r>
       <r>   27.3766    0.0000 </r>
      </set>
      <set comment="kpoint 47">
       <r>    6.4552    1.0000 </r>
       <r>    7.7955    0.9818 </r>
       <r>    8.1271    0.0000 </r>
       <r>    9.7787    0.0000 </r>
       <r>   21.5583    0.0000 </r>
       <r>   23.1853    0.0000 </r>
       <r>   26.4776    0.0000 </r>
       <r>   27.9357    0.0000 </r>
      </set>
     </set>
     <set comment="spin 2">
      <set comment="kpoint 1">
       <r>   -3.1144    1.0000 </r>
       <r>   20.7473    0.0000 </r>
       <r>   20.7473    0.0000 </r>
       <r>   20.7473    0.0000 </r>
       <r>   22.2422    0.0000 </r>
       <r>   22.2422    0.0000 </r>
       <r>   22.2423    0.0000 </r>
       <r>   24.5694    0.0000 </r>
      </set>
      <set comment="kpoint 2">
       <r>   -2.8416    1.0000 </r>
       <r>   17.4357    0.0000 </r>
       <r>   20.0183    0.0000 </r>
       <r>   20.0183    0.0000 </r>
       <r>   22.8963    0.0000 </r>
       <r>   23.3844    0.0000 </r>
       <r>   23.3845    0.0000 </r>
       <r>   26.2951    0.0000 </r>
      </set>
      <set comment="kpoint 3">
       <r>   -2.0267    1.0000 </r>
       <r>   13.4146    0.0000 </r>
       <r>   19.2528    0.0000 </r>
       <r>   19.2528    0.0000 </r>
       <r>   22.6035    0.0000 </r>
       <r>   23.7920    0.0000 </r>
       <r>   23.7920    0.0000 </r>
       <r>   25.8775    0.0000 </r>
      </set>
      <set comment="kpoint 4">
       <r>   -0.6787    1.0000 </r>
       <r>    9.7063   -0.0456 </r>
       <r>   18.9003    0.0000 </r>
       <r>   18.9003    0.0000 </r>
       <r>   22.0240    0.0000 </r>
       <r>   22.0241    0.0000 </r>
       <r>   22.4325    0.0000 </r>
       <r>   26.0171    0.0000 </r>
      </set>
      <set comment="kpoint 5">
       <r>    1.1875    1.0000 </r>
       <r>    6.4084    1.0570 </r>
       <r>   18.9957    0.0000 </r>
       <r>   18.9957    0.0000 </r>
       <r>   20.5654    0.0000 </r>
       <r>   20.5654    0.0000 </r>
       <r>   22.6456    0.0000 </r>
       <r>   24.4800    0.0000 </r>
      </set>
      <set comment="kpoint 6">
       <r>    3.4445    1.0000 </r>
       <r>    3.6733    1.0000 </r>
       <r>   19.5271    0.0000 </r>
       <r>   19.5272    0.0000 </r>
       <r>   19.5831    0.0000 </r>
       <r>   19.5832    0.0000 </r>
       <r>   23.2264    0.0000 </r>
       <r>   23.4462    0.0000 </r>
      </set>
      <set comment="kpoint 7">
       <r>   -2.7508    1.0000 </r>
       <r>   18.6116    0.0000 </r>
       <r>   18.6117    0.0000 </r>
       <r>   18.8867    0.0000 </r>
       <r>   21.4498    0.0000 </r>
       <r>   24.0717    0.0000 </r>
       <r>   24.9124    0.0000 </r>
       <r>   24.9125    0.0000 </r>
      </set>
      <set comment="kpoint 8">
       <r>   -2.1170    1.0000 </r>
       <r>   14.8939    0.0000 </r>
       <r>   17.6270    0.0000 </r>
       <r>   19.0357    0.0000 </r>
       <r>   21.4779    0.0000 </r>
       <r>   22.2662    0.0000 </r>
       <r>   25.2871    0.0000 </r>
       <r>   26.2509    0.0000 </r>
      </set>
      <set comment="kpoint 9">
       <r>   -0.9474    1.0000 </r>
       <r>   11.1048   -0.0091 </r>
       <r>   17.0977    0.0000 </r>
       <r>   18.7000    0.0000 </r>
       <r>   19.4392    0.0000 </r>
       <r>   24.3263    0.0000 </r>
       <r>   24.8242    0.0000 </r>
       <r>   25.2679    0.0000 </r>
      </set>
      <set comment="kpoint 10">
       <r>    0.7451    1.0000 </r>
       <r>    7.6798    0.6412 </r>
       <r>   17.0320    0.0000 </r>
       <r>   17.7370    0.0000 </r>
       <r>   18.7225    0.0000 </r>
       <r>   23.2905    0.0000 </r>
       <r>   25.0453    0.0000 </r>
       <r>   26.3341    0.0000 </r>
      </set>
      <set comment="kpoint 11">
       <r>    2.9384    1.0000 </r>
       <r>    4.6929    1.0000 </r>
       <r>   16.5372    0.0000 </r>
       <r>   17.4296    0.0000 </r>
       <r>   19.1647    0.0000 </r>
       <r>   22.1433    0.0000 </r>
       <r>   25.0753    0.0000 </r>
       <r>   25.7692    0.0000 </r>
      </set>
      <set comment="kpoint 12">
       <r>    2.1545    1.0000 </r>
       <r>    5.6345    1.0439 </r>
       <r>   15.8105    0.0000 </r>
       <r>   18.2928    0.0000 </r>
       <r>   20.0850    0.0000 </r>
       <r>   21.4422    0.0000 </r>
       <r>   24.3648    0.0000 </r>
       <r>   26.5782    0.0000 </r>
      </set>
      <set comment="kpoint 13">
       <r>    0.1241    1.0000 </r>
       <r>    8.7700    0.2050 </r>
       <r>   15.5698    0.0000 </r>
       <r>   19.6091    0.0000 </r>
       <r>   21.1949    0.0000 </r>
       <r>   21.4594    0.0000 </r>
       <r>   23.9848    0.0000 </r>
       <r>   27.5215    0.0000 </r>
      </set>
      <set comment="kpoint 14">
       <r>   -1.3961    1.0000 </r>
       <r>   12.3038    0.0000 </r>
       <r>   15.8351    0.0000 </r>
       <r>   21.1726    0.0000 </r>
       <r>   21.5475    0.0000 </r>
       <r>   23.2366    0.0000 </r>
       <r>   23.9320    0.0000 </r>
       <r>   24.7910    0.0000 </r>
      </set>
      <set comment="kpoint 15">
       <r>   -2.3883    1.0000 </r>
       <r>   15.8222    0.0000 </r>
       <r>   16.9203    0.0000 </r>
       <r>   21.4593    0.0000 </r>
       <r>   22.5730    0.0000 </r>
       <r>   23.7285    0.0000 </r>
       <r>   23.9901    0.0000 </r>
       <r>   24.9176    0.0000 </r>
      </set>
      <set comment="kpoint 16">
       <r>   -1.6660    1.0000 </r>
       <r>   16.4649    0.0000 </r>
       <r>   16.4649    0.0000 </r>
       <r>   16.5351    0.0000 </r>
       <r>   18.8570    0.0000 </r>
       <r>   19.9002    0.0000 </r>
       <r>   28.4587    0.0000 </r>
       <r>   28.4587    0.0000 </r>
      </set>
      <set comment="kpoint 17">
       <r>   -0.6789    1.0000 </r>
       <r>   12.9113    0.0000 </r>
       <r>   15.7710    0.0000 </r>
       <r>   16.4935    0.0000 </r>
       <r>   17.2117    0.0000 </r>
       <r>   20.6248    0.0000 </r>
       <r>   27.8989    0.0000 </r>
       <r>   29.1221    0.0000 </r>
      </set>
      <set comment="kpoint 18">
       <r>    0.8329    1.0000 </r>
       <r>    9.4229    0.0184 </r>
       <r>   14.6372    0.0000 </r>
       <r>   15.5442    0.0000 </r>
       <r>   17.2223    0.0000 </r>
       <r>   23.1484    0.0000 </r>
       <r>   26.4187    0.0000 </r>
       <r>   29.0288    0.0000 </r>
      </set>
      <set comment="kpoint 19">
       <r>    2.8499    1.0000 </r>
       <r>    6.3141    1.0490 </r>
       <r>   13.2444    0.0000 </r>
       <r>   15.7840    0.0000 </r>
       <r>   17.5564    0.0000 </r>
       <r>   25.1834    0.0000 </r>
       <r>   26.0458    0.0000 </r>
       <r>   28.5159    0.0000 </r>
      </set>
      <set comment="kpoint 20">
       <r>    3.6316    1.0000 </r>
       <r>    5.3672    1.0038 </r>
       <r>   12.3500    0.0000 </r>
       <r>   16.4905    0.0000 </r>
       <r>   18.3574    0.0000 </r>
       <r>   24.3474    0.0000 </r>
       <r>   26.8908    0.0000 </r>
       <r>   29.8605    0.0000 </r>
      </set>
      <set comment="kpoint 21">
       <r>    1.4516    1.0000 </r>
       <r>    8.2830    0.4221 </r>
       <r>   11.9998    0.0000 </r>
       <r>   17.6636    0.0000 </r>
       <r>   19.6314    0.0000 </r>
       <r>   23.9399    0.0000 </r>
       <r>   26.3534    0.0000 </r>
       <r>   27.1248    0.0000 </r>
      </set>
      <set comment="kpoint 22">
       <r>   -0.2324    1.0000 </r>
       <r>   11.1423    0.0000 </r>
       <r>   12.6453    0.0000 </r>
       <r>   19.2931    0.0000 </r>
       <r>   21.3266    0.0000 </r>
       <r>   23.5608    0.0000 </r>
       <r>   24.5762    0.0000 </r>
       <r>   25.5622    0.0000 </r>
      </set>
      <set comment="kpoint 23">
       <r>    0.1232    1.0000 </r>
       <r>   13.9732    0.0000 </r>
       <r>   14.7669    0.0000 </r>
       <r>   14.9161    0.0000 </r>
       <r>   14.9161    0.0000 </r>
       <r>   18.4701    0.0000 </r>
       <r>   30.5130    0.0000 </r>
       <r>   31.6557    0.0000 </r>
      </set>
      <set comment="kpoint 24">
       <r>    1.4481    1.0000 </r>
       <r>   11.5148   -0.0033 </r>
       <r>   11.9661    0.0000 </r>
       <r>   14.5312    0.0000 </r>
       <r>   15.8452    0.0000 </r>
       <r>   19.4495    0.0000 </r>
       <r>   29.7978    0.0000 </r>
       <r>   32.0559    0.0000 </r>
      </set>
      <set comment="kpoint 25">
       <r>    3.2749    1.0000 </r>
       <r>    8.3935    0.3683 </r>
       <r>   10.3485    0.0000 </r>
       <r>   14.6131    0.0000 </r>
       <r>   16.2171    0.0000 </r>
       <r>   22.3059    0.0000 </r>
       <r>   28.5954    0.0000 </r>
       <r>   31.2285    0.0000 </r>
      </set>
      <set comment="kpoint 26">
       <r>    5.4479    1.0000 </r>
       <r>    5.7247    1.0238 </r>
       <r>    9.3092    0.0000 </r>
       <r>   15.1615    0.0000 </r>
       <r>   16.9012    0.0000 </r>
       <r>   25.7145    0.0000 </r>
       <r>   27.6764    0.0000 </r>
       <r>   30.0314    0.0000 </r>
      </set>
      <set comment="kpoint 27">
       <r>    3.2873    1.0000 </r>
       <r>    7.7924    0.8881 </r>
       <r>    9.3052    0.0000 </r>
       <r>   16.1787    0.0000 </r>
       <r>   18.0484    0.0000 </r>
       <r>   27.0135    0.0000 </r>
       <r>   27.3063    0.0000 </r>
       <r>   28.5038    0.0000 </r>
      </set>
      <set comment="kpoint 28">
       <r>    2.5786    1.0000 </r>
       <r>    9.6326   -0.0375 </r>
       <r>   13.6989    0.0000 </r>
       <r>   13.9884    0.0000 </r>
       <r>   13.9884    0.0000 </r>
       <r>   17.5193    0.0000 </r>
       <r>   32.4526    0.0000 </r>
       <r>   34.0329    0.0000 </r>
      </set>
      <set comment="kpoint 29">
       <r>    4.1830    1.0000 </r>
       <r>    7.8954    0.6133 </r>
       <r>   10.9231    0.0000 </r>
       <r>   13.9125    0.0000 </r>
       <r>   15.1573    0.0000 </r>
       <r>   18.8280    0.0000 </r>
       <r>   32.0219    0.0000 </r>
       <r>   33.9041    0.0000 </r>
      </set>
      <set comment="kpoint 30">
       <r>    5.7879    1.0000 </r>
       <r>    7.1111    1.0853 </r>
       <r>    8.1521    0.0000 </r>
       <r>   14.3026    0.0000 </r>
       <r>   15.8711    0.0000 </r>
       <r>   22.0122    0.0000 </r>
       <r>   30.9474    0.0000 </r>
       <r>   31.5641    0.0000 </r>
      </set>
      <set comment="kpoint 31">
       <r>    5.1217    1.0000 </r>
       <r>    6.4609    1.0872 </r>
       <r>   13.3412    0.0000 </r>
       <r>   13.6795    0.0000 </r>
       <r>   13.6795    0.0000 </r>
       <r>   17.1898    0.0000 </r>
       <r>   33.6276    0.0000 </r>
       <r>   35.1638    0.0000 </r>
      </set>
      <set comment="kpoint 32">
       <r>   -1.3062    1.0000 </r>
       <r>   13.4906    0.0000 </r>
       <r>   14.8028    0.0000 </r>
       <r>   19.1540    0.0000 </r>
       <r>   20.1114    0.0000 </r>
       <r>   21.9501    0.0000 </r>
       <r>   25.5937    0.0000 </r>
       <r>   26.8883    0.0000 </r>
      </set>
      <set comment="kpoint 33">
       <r>    0.0349    1.0000 </r>
       <r>   10.3005   -0.0548 </r>
       <r>   13.9326    0.0000 </r>
       <r>   17.1642    0.0000 </r>
       <r>   20.4404    0.0000 </r>
       <r>   23.5175    0.0000 </r>
       <r>   24.2604    0.0000 </r>
       <r>   27.3378    0.0000 </r>
      </set>
      <set comment="kpoint 34">
       <r>    1.8906    1.0000 </r>
       <r>    7.0719    0.8949 </r>
       <r>   13.9582    0.0000 </r>
       <r>   15.6364    0.0000 </r>
       <r>   20.6379    0.0000 </r>
       <r>   22.3322    0.0000 </r>
       <r>   26.6074    0.0000 </r>
       <r>   27.9152    0.0000 </r>
      </set>
      <set comment="kpoint 35">
       <r>    4.1171    1.0000 </r>
       <r>    4.3781    1.0000 </r>
       <r>   14.3391    0.0000 </r>
       <r>   14.7591    0.0000 </r>
       <r>   21.0749    0.0000 </r>
       <r>   21.4588    0.0000 </r>
       <r>   27.4685    0.0000 </r>
       <r>   28.8886    0.0000 </r>
      </set>
      <set comment="kpoint 36">
       <r>    0.4784    1.0000 </r>
       <r>   11.8163    0.0000 </r>
       <r>   13.1544    0.0000 </r>
       <r>   14.3910    0.0000 </r>
       <r>   18.5249    0.0000 </r>
       <r>   20.6395    0.0000 </r>
       <r>   27.1439    0.0000 </r>
       <r>   30.8960    0.0000 </r>
      </set>
      <set comment="kpoint 37">
       <r>    2.1508    1.0000 </r>
       <r>    8.9489    0.1248 </r>
       <r>   12.3484    0.0000 </r>
       <r>   12.8969    0.0000 </r>
       <r>   19.2299    0.0000 </r>
       <r>   22.8431    0.0000 </r>
       <r>   25.7397    0.0000 </r>
       <r>   31.2051    0.0000 </r>
      </set>
      <set comment="kpoint 38">
       <r>    4.3083    1.0000 </r>
       <r>    6.0500    1.0755 </r>
       <r>   11.3211    0.0000 </r>
       <r>   13.0511    0.0000 </r>
       <r>   19.7800    0.0000 </r>
       <r>   24.3984    0.0000 </r>
       <r>   26.2315    0.0000 </r>
       <r>   29.9104    0.0000 </r>
      </set>
      <set comment="kpoint 39">
       <r>    3.5451    1.0000 </r>
       <r>    6.9272    1.0141 </r>
       <r>   10.6506    0.0000 </r>
       <r>   13.9272    0.0000 </r>
       <r>   20.7092    0.0000 </r>
       <r>   23.6859    0.0000 </r>
       <r>   26.8870    0.0000 </r>
       <r>   29.3223    0.0000 </r>
      </set>
      <set comment="kpoint 40">
       <r>    1.5390    1.0000 </r>
       <r>    9.4671   -0.0546 </r>
       <r>   10.9866    0.0000 </r>
       <r>   15.3111    0.0000 </r>
       <r>   22.0321    0.0000 </r>
       <r>   22.8077    0.0000 </r>
       <r>   24.3798    0.0000 </r>
       <r>   29.3327    0.0000 </r>
      </set>
      <set comment="kpoint 41">
       <r>    2.9272    1.0000 </r>
       <r>    9.9478   -0.0929 </r>
       <r>   10.8102    0.0000 </r>
       <r>   12.2966    0.0000 </r>
       <r>   17.5425    0.0000 </r>
       <r>   19.7617    0.0000 </r>
       <r>   29.2729    0.0000 </r>
       <r>   33.5083    0.0000 </r>
      </set>
      <set comment="kpoint 42">
       <r>    4.8671    1.0000 </r>
       <r>    8.1778    0.6469 </r>
       <r>    8.6973    0.0000 </r>
       <r>   12.0170    0.0000 </r>
       <r>   18.5892    0.0000 </r>
       <r>   22.2966    0.0000 </r>
       <r>   28.1199    0.0000 </r>
       <r>   30.9162    0.0000 </r>
      </set>
      <set comment="kpoint 43">
       <r>    5.6761    1.0000 </r>
       <r>    6.7893    1.0150 </r>
       <r>    8.2680    0.0000 </r>
       <r>   12.7031    0.0000 </r>
       <r>   19.4702    0.0000 </r>
       <r>   25.6995    0.0000 </r>
       <r>   26.7674    0.0000 </r>
       <r>   28.0546    0.0000 </r>
      </set>
      <set comment="kpoint 44">
       <r>    5.4546    1.0000 </r>
       <r>    6.8089    1.0995 </r>
       <r>   10.4745    0.0000 </r>
       <r>   11.9516    0.0000 </r>
       <r>   17.2133    0.0000 </r>
       <r>   19.4569    0.0000 </r>
       <r>   31.6875    0.0000 </r>
       <r>   31.7873    0.0000 </r>
      </set>
      <set comment="kpoint 45">
       <r>    3.9677    1.0000 </r>
       <r>    8.4622    0.4781 </r>
       <r>    9.8791    0.0000 </r>
       <r>   11.1484    0.0000 </r>
       <r>   21.8797    0.0000 </r>
       <r>   23.2826    0.0000 </r>
       <r>   24.5605    0.0000 </r>
       <r>   30.2346    0.0000 </r>
      </set>
      <set comment="kpoint 46">
       <r>    6.1092    1.0000 </r>
       <r>    6.3602    1.0508 </r>
       <r>    9.6607    0.0000 </r>
       <r>   10.3525    0.0000 </r>
       <r>   22.8714    0.0000 </r>
       <r>   23.3205    0.0000 </r>
       <r>   25.8869    0.0000 </r>
       <r>   27.3766    0.0000 </r>
      </set>
      <set comment="kpoint 47">
       <r>    6.4552    1.0000 </r>
       <r>    7.7955    0.9818 </r>
       <r>    8.1271    0.0000 </r>
       <r>    9.7787    0.0000 </r>
       <r>   21.5583    0.0000 </r>
       <r>   23.1853    0.0000 </r>
       <r>   26.4776    0.0000 </r>
       <r>   27.9357    0.0000 </r>
      </set>
     </set>
    </set>
   </array>
  </eigenvalues>
  <separator name="orbital magnetization" >
   <v name="MAGDIPOLOUT">      0.00000000      0.00000000      0.00000000</v>
  </separator>
  <dos>
   <i name="efermi">      8.11334651 </i>
   <total>
    <array>
     <dimension dim="1">gridpoints</dimension>
     <dimension dim="2">spin</dimension>
     <field>energy</field>
     <field>total</field>
     <field>integrated</field>
     <set>
      <set comment="spin 1">
       <r>    -5.0283     0.0000     0.0000 </r>
       <r>    -4.8879     0.0000     0.0000 </r>
       <r>    -4.7476     0.0000     0.0000 </r>
       <r>    -4.6072     0.0000     0.0000 </r>
       <r>    -4.4669     0.0000     0.0000 </r>
       <r>    -4.3265     0.0000     0.0000 </r>
       <r>    -4.1862     0.0000     0.0000 </r>
       <r>    -4.0458     0.0000     0.0000 </r>
       <r>    -3.9055     0.0000     0.0000 </r>
       <r>    -3.7651     0.0000     0.0000 </r>
       <r>    -3.6247     0.0000     0.0000 </r>
       <r>    -3.4844     0.0000     0.0000 </r>
       <r>    -3.3440     0.0000     0.0000 </r>
       <r>    -3.2037     0.0000     0.0000 </r>
       <r>    -3.0633     0.0012     0.0000 </r>
       <r>    -2.9230     0.0163     0.0010 </r>
       <r>    -2.7826     0.0281     0.0048 </r>
       <r>    -2.6423     0.0337     0.0090 </r>
       <r>    -2.5019     0.0408     0.0143 </r>
       <r>    -2.3616     0.0485     0.0205 </r>
       <r>    -2.2212     0.0535     0.0277 </r>
       <r>    -2.0809     0.0551     0.0354 </r>
       <r>    -1.9405     0.0590     0.0433 </r>
       <r>    -1.8002     0.0632     0.0519 </r>
       <r>    -1.6598     0.0676     0.0611 </r>
       <r>    -1.5194     0.0721     0.0709 </r>
       <r>    -1.3791     0.0762     0.0814 </r>
       <r>    -1.2387     0.0781     0.0921 </r>
       <r>    -1.0984     0.0808     0.1033 </r>
       <r>    -0.9580     0.0833     0.1148 </r>
       <r>    -0.8177     0.0859     0.1267 </r>
       <r>    -0.6773     0.0888     0.1389 </r>
       <r>    -0.5370     0.0921     0.1516 </r>
       <r>    -0.3966     0.0954     0.1648 </r>
       <r>    -0.2563     0.0987     0.1784 </r>
       <r>    -0.1159     0.1016     0.1925 </r>
       <r>     0.0244     0.1033     0.2069 </r>
       <r>     0.1648     0.1052     0.2215 </r>
       <r>     0.3051     0.1074     0.2364 </r>
       <r>     0.4455     0.1097     0.2516 </r>
       <r>     0.5859     0.1120     0.2672 </r>
       <r>     0.7262     0.1143     0.2831 </r>
       <r>     0.8666     0.1167     0.2993 </r>
       <r>     1.0069     0.1192     0.3158 </r>
       <r>     1.1473     0.1218     0.3327 </r>
       <r>     1.2876     0.1245     0.3500 </r>
       <r>     1.4280     0.1271     0.3677 </r>
       <r>     1.5683     0.1289     0.3856 </r>
       <r>     1.7087     0.1308     0.4039 </r>
       <r>     1.8490     0.1326     0.4223 </r>
       <r>     1.9894     0.1345     0.4411 </r>
       <r>     2.1297     0.1368     0.4601 </r>
       <r>     2.2701     0.1398     0.4795 </r>
       <r>     2.4104     0.1445     0.4994 </r>
       <r>     2.5508     0.1507     0.5201 </r>
       <r>     2.6912     0.1586     0.5418 </r>
       <r>     2.8315     0.1681     0.5647 </r>
       <r>     2.9719     0.1762     0.5891 </r>
       <r>     3.1122     0.1695     0.6134 </r>
       <r>     3.2526     0.1645     0.6368 </r>
       <r>     3.3929     0.1610     0.6596 </r>
       <r>     3.5333     0.1582     0.6820 </r>
       <r>     3.6736     0.1626     0.7043 </r>
       <r>     3.8140     0.1684     0.7276 </r>
       <r>     3.9543     0.1692     0.7514 </r>
       <r>     4.0947     0.1648     0.7749 </r>
       <r>     4.2350     0.1504     0.7972 </r>
       <r>     4.3754     0.1365     0.8168 </r>
       <r>     4.5157     0.1473     0.8365 </r>
       <r>     4.6561     0.1721     0.8588 </r>
       <r>     4.7965     0.1846     0.8842 </r>
       <r>     4.9368     0.1948     0.9106 </r>
       <r>     5.0772     0.2032     0.9387 </r>
       <r>     5.2175     0.2007     0.9671 </r>
       <r>     5.3579     0.1894     0.9946 </r>
       <r>     5.4982     0.1841     1.0204 </r>
       <r>     5.6386     0.1692     1.0456 </r>
       <r>     5.7789     0.1453     1.0670 </r>
       <r>     5.9193     0.1554     1.0882 </r>
       <r>     6.0596     0.1586     1.1102 </r>
       <r>     6.2000     0.1760     1.1338 </r>
       <r>     6.3403     0.1802     1.1590 </r>
       <r>     6.4807     0.1792     1.1841 </r>
       <r>     6.6210     0.1871     1.2099 </r>
       <r>     6.7614     0.1840     1.2361 </r>
       <r>     6.9018     0.1896     1.2618 </r>
       <r>     7.0421     0.1963     1.2892 </r>
       <r>     7.1825     0.2007     1.3170 </r>
       <r>     7.3228     0.2035     1.3454 </r>
       <r>     7.4632     0.2040     1.3741 </r>
       <r>     7.6035     0.2020     1.4026 </r>
       <r>     7.7439     0.1977     1.4307 </r>
       <r>     7.8842     0.1908     1.4580 </r>
       <r>     8.0246     0.1823     1.4842 </r>
       <r>     8.1649     0.1670     1.5088 </r>
       <r>     8.3053     0.1829     1.5327 </r>
       <r>     8.4456     0.2084     1.5603 </r>
       <r>     8.5860     0.2216     1.5907 </r>
       <r>     8.7263     0.2206     1.6217 </r>
       <r>     8.8667     0.2269     1.6531 </r>
       <r>     9.0071     0.2276     1.6853 </r>
       <r>     9.1474     0.2212     1.7167 </r>
       <r>     9.2878     0.2181     1.7475 </r>
       <r>     9.4281     0.2037     1.7765 </r>
       <r>     9.5685     0.2030     1.8050 </r>
       <r>     9.7088     0.1980     1.8334 </r>
       <r>     9.8492     0.1963     1.8608 </r>
       <r>     9.9895     0.2069     1.8891 </r>
       <r>    10.1299     0.2164     1.9188 </r>
       <r>    10.2702     0.2245     1.9498 </r>
       <r>    10.4106     0.2280     1.9815 </r>
       <r>    10.5509     0.2337     2.0139 </r>
       <r>    10.6913     0.2409     2.0474 </r>
       <r>    10.8316     0.2438     2.0813 </r>
       <r>    10.9720     0.2221     2.1138 </r>
       <r>    11.1124     0.2198     2.1448 </r>
       <r>    11.2527     0.2186     2.1756 </r>
       <r>    11.3931     0.2203     2.2063 </r>
       <r>    11.5334     0.2251     2.2376 </r>
       <r>    11.6738     0.2310     2.2695 </r>
       <r>    11.8141     0.2405     2.3026 </r>
       <r>    11.9545     0.2529     2.3372 </r>
       <r>    12.0948     0.2752     2.3757 </r>
       <r>    12.2352     0.2628     2.4133 </r>
       <r>    12.3755     0.2626     2.4502 </r>
       <r>    12.5159     0.2616     2.4869 </r>
       <r>    12.6562     0.2623     2.5237 </r>
       <r>    12.7966     0.2647     2.5606 </r>
       <r>    12.9369     0.2675     2.5980 </r>
       <r>    13.0773     0.2681     2.6356 </r>
       <r>    13.2177     0.2721     2.6735 </r>
       <r>    13.3580     0.2779     2.7120 </r>
       <r>    13.4984     0.2853     2.7515 </r>
       <r>    13.6387     0.2940     2.7922 </r>
       <r>    13.7791     0.3083     2.8343 </r>
       <r>    13.9194     0.3315     2.8796 </r>
       <r>    14.0598     0.2882     2.9214 </r>
       <r>    14.2001     0.2826     2.9614 </r>
       <r>    14.3405     0.2791     3.0008 </r>
       <r>    14.4808     0.2861     3.0401 </r>
       <r>    14.6212     0.2854     3.0810 </r>
       <r>    14.7615     0.2724     3.1201 </r>
       <r>    14.9019     0.2664     3.1578 </r>
       <r>    15.0422     0.2627     3.1950 </r>
       <r>    15.1826     0.2600     3.2316 </r>
       <r>    15.3230     0.2596     3.2681 </r>
       <r>    15.4633     0.2603     3.3045 </r>
       <r>    15.6037     0.2624     3.3412 </r>
       <r>    15.7440     0.2680     3.3784 </r>
       <r>    15.8844     0.2669     3.4160 </r>
       <r>    16.0247     0.2638     3.4533 </r>
       <r>    16.1651     0.2611     3.4901 </r>
       <r>    16.3054     0.2589     3.5266 </r>
       <r>    16.4458     0.2576     3.5628 </r>
       <r>    16.5861     0.2540     3.5987 </r>
       <r>    16.7265     0.2540     3.6343 </r>
       <r>    16.8668     0.2541     3.6700 </r>
       <r>    17.0072     0.2543     3.7056 </r>
       <r>    17.1475     0.2549     3.7414 </r>
       <r>    17.2879     0.2556     3.7772 </r>
       <r>    17.4283     0.2571     3.8132 </r>
       <r>    17.5686     0.2608     3.8495 </r>
       <r>    17.7090     0.2642     3.8864 </r>
       <r>    17.8493     0.2669     3.9237 </r>
       <r>    17.9897     0.2702     3.9613 </r>
       <r>    18.1300     0.2738     3.9995 </r>
       <r>    18.2704     0.2777     4.0382 </r>
       <r>    18.4107     0.2819     4.0775 </r>
       <r>    18.5511     0.2865     4.1173 </r>
       <r>    18.6914     0.2920     4.1579 </r>
       <r>    18.8318     0.2992     4.1994 </r>
       <r>    18.9721     0.3076     4.2420 </r>
       <r>    19.1125     0.3122     4.2855 </r>
       <r>    19.2528     0.3279     4.3301 </r>
       <r>    19.3932     0.3450     4.3774 </r>
       <r>    19.5336     0.3575     4.4267 </r>
       <r>    19.6739     0.3660     4.4775 </r>
       <r>    19.8143     0.3756     4.5295 </r>
       <r>    19.9546     0.3889     4.5832 </r>
       <r>    20.0950     0.3946     4.6383 </r>
       <r>    20.2353     0.3956     4.6938 </r>
       <r>    20.3757     0.3973     4.7494 </r>
       <r>    20.5160     0.3941     4.8052 </r>
       <r>    20.6564     0.3740     4.8592 </r>
       <r>    20.7967     0.3269     4.9084 </r>
       <r>    20.9371     0.2913     4.9516 </r>
       <r>    21.0774     0.2715     4.9909 </r>
       <r>    21.2178     0.2592     5.0282 </r>
       <r>    21.3581     0.2345     5.0630 </r>
       <r>    21.4985     0.2299     5.0947 </r>
       <r>    21.6389     0.2466     5.1281 </r>
       <r>    21.7792     0.2576     5.1636 </r>
       <r>    21.9196     0.2589     5.1999 </r>
       <r>    22.0599     0.2545     5.2360 </r>
       <r>    22.2003     0.2517     5.2713 </r>
       <r>    22.3406     0.2597     5.3071 </r>
       <r>    22.4810     0.2776     5.3447 </r>
       <r>    22.6213     0.3068     5.3857 </r>
       <r>    22.7617     0.3429     5.4310 </r>
       <r>    22.9020     0.3962     5.4834 </r>
       <r>    23.0424     0.4235     5.5410 </r>
       <r>    23.1827     0.4464     5.6021 </r>
       <r>    23.3231     0.4416     5.6726 </r>
       <r>    23.4634     0.4390     5.7346 </r>
       <r>    23.6038     0.3759     5.7922 </r>
       <r>    23.7442     0.3104     5.8405 </r>
       <r>    23.8845     0.2691     5.8807 </r>
       <r>    24.0249     0.2802     5.9186 </r>
       <r>    24.1652     0.2890     5.9588 </r>
       <r>    24.3056     0.3020     5.9993 </r>
       <r>    24.4459     0.2932     6.0417 </r>
       <r>    24.5863     0.2814     6.0819 </r>
       <r>    24.7266     0.2731     6.1208 </r>
       <r>    24.8670     0.2705     6.1588 </r>
       <r>    25.0073     0.2788     6.1972 </r>
       <r>    25.1477     0.2939     6.2373 </r>
       <r>    25.2880     0.3116     6.2798 </r>
       <r>    25.4284     0.3279     6.3247 </r>
       <r>    25.5687     0.3428     6.3718 </r>
       <r>    25.7091     0.3570     6.4208 </r>
       <r>    25.8494     0.3705     6.4720 </r>
       <r>    25.9898     0.3994     6.5256 </r>
       <r>    26.1302     0.4411     6.5848 </r>
       <r>    26.2705     0.4486     6.6479 </r>
       <r>    26.4109     0.4255     6.7095 </r>
       <r>    26.5512     0.4059     6.7674 </r>
       <r>    26.6916     0.4082     6.8245 </r>
       <r>    26.8319     0.4052     6.8815 </r>
       <r>    26.9723     0.3795     6.9378 </r>
       <r>    27.1126     0.3300     6.9875 </r>
       <r>    27.2530     0.2919     7.0310 </r>
       <r>    27.3933     0.2685     7.0701 </r>
       <r>    27.5337     0.2508     7.1068 </r>
       <r>    27.6740     0.2233     7.1400 </r>
       <r>    27.8144     0.2080     7.1703 </r>
       <r>    27.9547     0.1954     7.1985 </r>
       <r>    28.0951     0.1951     7.2258 </r>
       <r>    28.2355     0.1989     7.2534 </r>
       <r>    28.3758     0.2059     7.2818 </r>
       <r>    28.5162     0.2162     7.3114 </r>
       <r>    28.6565     0.2272     7.3425 </r>
       <r>    28.7969     0.2370     7.3751 </r>
       <r>    28.9372     0.2453     7.4090 </r>
       <r>    29.0776     0.2524     7.4439 </r>
       <r>    29.2179     0.2582     7.4797 </r>
       <r>    29.3583     0.2607     7.5163 </r>
       <r>    29.4986     0.2582     7.5528 </r>
       <r>    29.6390     0.2489     7.5884 </r>
       <r>    29.7793     0.2329     7.6223 </r>
       <r>    29.9197     0.1912     7.6531 </r>
       <r>    30.0600     0.1551     7.6763 </r>
       <r>    30.2004     0.1518     7.6978 </r>
       <r>    30.3408     0.1482     7.7189 </r>
       <r>    30.4811     0.1439     7.7394 </r>
       <r>    30.6215     0.1388     7.7592 </r>
       <r>    30.7618     0.1331     7.7783 </r>
       <r>    30.9022     0.1266     7.7966 </r>
       <r>    31.0425     0.1202     7.8139 </r>
       <r>    31.1829     0.1083     7.8300 </r>
       <r>    31.3232     0.1011     7.8446 </r>
       <r>    31.4636     0.0969     7.8585 </r>
       <r>    31.6039     0.0930     7.8718 </r>
       <r>    31.7443     0.0899     7.8846 </r>
       <r>    31.8846     0.0850     7.8969 </r>
       <r>    32.0250     0.0772     7.9084 </r>
       <r>    32.1653     0.0716     7.9188 </r>
       <r>    32.3057     0.0658     7.9284 </r>
       <r>    32.4461     0.0597     7.9373 </r>
       <r>    32.5864     0.0535     7.9452 </r>
       <r>    32.7268     0.0479     7.9523 </r>
       <r>    32.8671     0.0429     7.9587 </r>
       <r>    33.0075     0.0385     7.9644 </r>
       <r>    33.1478     0.0347     7.9695 </r>
       <r>    33.2882     0.0315     7.9741 </r>
       <r>    33.4285     0.0288     7.9784 </r>
       <r>    33.5689     0.0270     7.9823 </r>
       <r>    33.7092     0.0277     7.9861 </r>
       <r>    33.8496     0.0311     7.9902 </r>
       <r>    33.9899     0.0171     7.9940 </r>
       <r>    34.1303     0.0119     7.9959 </r>
       <r>    34.2706     0.0089     7.9973 </r>
       <r>    34.4110     0.0063     7.9984 </r>
       <r>    34.5514     0.0042     7.9991 </r>
       <r>    34.6917     0.0025     7.9996 </r>
       <r>    34.8321     0.0012     7.9999 </r>
       <r>    34.9724     0.0004     8.0000 </r>
       <r>    35.1128     0.0000     8.0000 </r>
       <r>    35.2531     0.0000     8.0000 </r>
       <r>    35.3935     0.0000     8.0000 </r>
       <r>    35.5338     0.0000     8.0000 </r>
       <r>    35.6742     0.0000     8.0000 </r>
       <r>    35.8145     0.0000     8.0000 </r>
       <r>    35.9549     0.0000     8.0000 </r>
       <r>    36.0952     0.0000     8.0000 </r>
       <r>    36.2356     0.0000     8.0000 </r>
       <r>    36.3759     0.0000     8.0000 </r>
       <r>    36.5163     0.0000     8.0000 </r>
       <r>    36.6567     0.0000     8.0000 </r>
       <r>    36.7970     0.0000     8.0000 </r>
       <r>    36.9374     0.0000     8.0000 </r>
       <r>    37.0777     0.0000     8.0000 </r>
      </set>
      <set comment="spin 2">
       <r>    -5.0283     0.0000     0.0000 </r>
       <r>    -4.8879     0.0000     0.0000 </r>
       <r>    -4.7476     0.0000     0.0000 </r>
       <r>    -4.6072     0.0000     0.0000 </r>
       <r>    -4.4669     0.0000     0.0000 </r>
       <r>    -4.3265     0.0000     0.0000 </r>
       <r>    -4.1862     0.0000     0.0000 </r>
       <r>    -4.0458     0.0000     0.0000 </r>
       <r>    -3.9055     0.0000     0.0000 </r>
       <r>    -3.7651     0.0000     0.0000 </r>
       <r>    -3.6247     0.0000     0.0000 </r>
       <r>    -3.4844     0.0000     0.0000 </r>
       <r>    -3.3440     0.0000     0.0000 </r>
       <r>    -3.2037     0.0000     0.0000 </r>
       <r>    -3.0633     0.0012     0.0000 </r>
       <r>    -2.9230     0.0163     0.0010 </r>
       <r>    -2.7826     0.0281     0.0048 </r>
       <r>    -2.6423     0.0337     0.0090 </r>
       <r>    -2.5019     0.0408     0.0143 </r>
       <r>    -2.3616     0.0485     0.0205 </r>
       <r>    -2.2212     0.0535     0.0277 </r>
       <r>    -2.0809     0.0551     0.0354 </r>
       <r>    -1.9405     0.0590     0.0433 </r>
       <r>    -1.8002     0.0632     0.0519 </r>
       <r>    -1.6598     0.0676     0.0611 </r>
       <r>    -1.5194     0.0721     0.0709 </r>
       <r>    -1.3791     0.0762     0.0814 </r>
       <r>    -1.2387     0.0781     0.0921 </r>
       <r>    -1.0984     0.0808     0.1033 </r>
       <r>    -0.9580     0.0833     0.1148 </r>
       <r>    -0.8177     0.0859     0.1267 </r>
       <r>    -0.6773     0.0888     0.1389 </r>
       <r>    -0.5370     0.0921     0.1516 </r>
       <r>    -0.3966     0.0954     0.1648 </r>
       <r>    -0.2563     0.0987     0.1784 </r>
       <r>    -0.1159     0.1016     0.1925 </r>
       <r>     0.0244     0.1033     0.2069 </r>
       <r>     0.1648     0.1052     0.2215 </r>
       <r>     0.3051     0.1074     0.2364 </r>
       <r>     0.4455     0.1097     0.2516 </r>
       <r>     0.5859     0.1120     0.2672 </r>
       <r>     0.7262     0.1143     0.2831 </r>
       <r>     0.8666     0.1167     0.2993 </r>
       <r>     1.0069     0.1192     0.3158 </r>
       <r>     1.1473     0.1218     0.3327 </r>
       <r>     1.2876     0.1245     0.3500 </r>
       <r>     1.4280     0.1271     0.3677 </r>
       <r>     1.5683     0.1289     0.3856 </r>
       <r>     1.7087     0.1308     0.4039 </r>
       <r>     1.8490     0.1326     0.4223 </r>
       <r>     1.9894     0.1345     0.4411 </r>
       <r>     2.1297     0.1368     0.4601 </r>
       <r>     2.2701     0.1398     0.4795 </r>
       <r>     2.4104     0.1445     0.4994 </r>
       <r>     2.5508     0.1507     0.5201 </r>
       <r>     2.6912     0.1586     0.5418 </r>
       <r>     2.8315     0.1681     0.5647 </r>
       <r>     2.9719     0.1762     0.5891 </r>
       <r>     3.1122     0.1695     0.6134 </r>
       <r>     3.2526     0.1645     0.6368 </r>
       <r>     3.3929     0.1610     0.6596 </r>
       <r>     3.5333     0.1582     0.6820 </r>
       <r>     3.6736     0.1626     0.7043 </r>
       <r>     3.8140     0.1684     0.7276 </r>
       <r>     3.9543     0.1692     0.7514 </r>
       <r>     4.0947     0.1648     0.7749 </r>
       <r>     4.2350     0.1504     0.7972 </r>
       <r>     4.3754     0.1365     0.8168 </r>
       <r>     4.5157     0.1473     0.8365 </r>
       <r>     4.6561     0.1721     0.8588 </r>
       <r>     4.7965     0.1846     0.8842 </r>
       <r>     4.9368     0.1948     0.9106 </r>
       <r>     5.0772     0.2032     0.9387 </r>
       <r>     5.2175     0.2007     0.9671 </r>
       <r>     5.3579     0.1894     0.9946 </r>
       <r>     5.4982     0.1841     1.0204 </r>
       <r>     5.6386     0.1692     1.0456 </r>
       <r>     5.7789     0.1453     1.0670 </r>
       <r>     5.9193     0.1554     1.0882 </r>
       <r>     6.0596     0.1586     1.1102 </r>
       <r>     6.2000     0.1760     1.1338 </r>
       <r>     6.3403     0.1802     1.1590 </r>
       <r>     6.4807     0.1792     1.1841 </r>
       <r>     6.6210     0.1871     1.2099 </r>
       <r>     6.7614     0.1840     1.2361 </r>
       <r>     6.9018     0.1896     1.2618 </r>
       <r>     7.0421     0.1963     1.2892 </r>
       <r>     7.1825     0.2007     1.3170 </r>
       <r>     7.3228     0.2035     1.3454 </r>
       <r>     7.4632     0.2040     1.3741 </r>
       <r>     7.6035     0.2020     1.4026 </r>
       <r>     7.7439     0.1977     1.4307 </r>
       <r>     7.8842     0.1908     1.4580 </r>
       <r>     8.0246     0.1823     1.4842 </r>
       <r>     8.1649     0.1670     1.5088 </r>
       <r>     8.3053     0.1829     1.5327 </r>
       <r>     8.4456     0.2084     1.5603 </r>
       <r>     8.5860     0.2216     1.5907 </r>
       <r>     8.7263     0.2206     1.6217 </r>
       <r>     8.8667     0.2269     1.6531 </r>
       <r>     9.0071     0.2276     1.6853 </r>
       <r>     9.1474     0.2212     1.7167 </r>
       <r>     9.2878     0.2181     1.7475 </r>
       <r>     9.4281     0.2037     1.7765 </r>
       <r>     9.5685     0.2030     1.8050 </r>
       <r>     9.7088     0.1980     1.8334 </r>
       <r>     9.8492     0.1963     1.8608 </r>
       <r>     9.9895     0.2069     1.8891 </r>
       <r>    10.1299     0.2164     1.9188 </r>
       <r>    10.2702     0.2245     1.9498 </r>
       <r>    10.4106     0.2280     1.9815 </r>
       <r>    10.5509     0.2337     2.0139 </r>
       <r>    10.6913     0.2409     2.0474 </r>
       <r>    10.8316     0.2438     2.0813 </r>
       <r>    10.9720     0.2221     2.1138 </r>
       <r>    11.1124     0.2198     2.1448 </r>
       <r>    11.2527     0.2186     2.1756 </r>
       <r>    11.3931     0.2203     2.2063 </r>
       <r>    11.5334     0.2251     2.2376 </r>
       <r>    11.6738     0.2310     2.2695 </r>
       <r>    11.8141     0.2405     2.3026 </r>
       <r>    11.9545     0.2529     2.3372 </r>
       <r>    12.0948     0.2752     2.3757 </r>
       <r>    12.2352     0.2628     2.4133 </r>
       <r>    12.3755     0.2626     2.4502 </r>
       <r>    12.5159     0.2616     2.4869 </r>
       <r>    12.6562     0.2623     2.5237 </r>
       <r>    12.7966     0.2647     2.5606 </r>
       <r>    12.9369     0.2675     2.5980 </r>
       <r>    13.0773     0.2681     2.6356 </r>
       <r>    13.2177     0.2721     2.6735 </r>
       <r>    13.3580     0.2779     2.7120 </r>
       <r>    13.4984     0.2853     2.7515 </r>
       <r>    13.6387     0.2940     2.7922 </r>
       <r>    13.7791     0.3083     2.8343 </r>
       <r>    13.9194     0.3315     2.8796 </r>
       <r>    14.0598     0.2882     2.9214 </r>
       <r>    14.2001     0.2826     2.9614 </r>
       <r>    14.3405     0.2791     3.0008 </r>
       <r>    14.4808     0.2861     3.0401 </r>
       <r>    14.6212     0.2854     3.0810 </r>
       <r>    14.7615     0.2724     3.1201 </r>
       <r>    14.9019     0.2664     3.1578 </r>
       <r>    15.0422     0.2627     3.1950 </r>
       <r>    15.1826     0.2600     3.2316 </r>
       <r>    15.3230     0.2596     3.2681 </r>
       <r>    15.4633     0.2603     3.3045 </r>
       <r>    15.6037     0.2624     3.3412 </r>
       <r>    15.7440     0.2680     3.3784 </r>
       <r>    15.8844     0.2669     3.4160 </r>
       <r>    16.0247     0.2638     3.4533 </r>
       <r>    16.1651     0.2611     3.4901 </r>
       <r>    16.3054     0.2589     3.5266 </r>
       <r>    16.4458     0.2576     3.5628 </r>
       <r>    16.5861     0.2540     3.5987 </r>
       <r>    16.7265     0.2540     3.6343 </r>
       <r>    16.8668     0.2541     3.6700 </r>
       <r>    17.0072     0.2543     3.7056 </r>
       <r>    17.1475     0.2549     3.7414 </r>
       <r>    17.2879     0.2556     3.7772 </r>
       <r>    17.4283     0.2571     3.8132 </r>
       <r>    17.5686     0.2608     3.8495 </r>
       <r>    17.7090     0.2642     3.8864 </r>
       <r>    17.8493     0.2669     3.9237 </r>
       <r>    17.9897     0.2702     3.9613 </r>
       <r>    18.1300     0.2738     3.9995 </r>
       <r>    18.2704     0.2777     4.0382 </r>
       <r>    18.4107     0.2819     4.0775 </r>
       <r>    18.5511     0.2865     4.1173 </r>
       <r>    18.6914     0.2920     4.1579 </r>
       <r>    18.8318     0.2992     4.1994 </r>
       <r>    18.9721     0.3076     4.2420 </r>
       <r>    19.1125     0.3122     4.2855 </r>
       <r>    19.2528     0.3279     4.3301 </r>
       <r>    19.3932     0.3450     4.3774 </r>
       <r>    19.5336     0.3575     4.4267 </r>
       <r>    19.6739     0.3660     4.4775 </r>
       <r>    19.8143     0.3756     4.5295 </r>
       <r>    19.9546     0.3889     4.5832 </r>
       <r>    20.0950     0.3946     4.6383 </r>
       <r>    20.2353     0.3956     4.6938 </r>
       <r>    20.3757     0.3973     4.7494 </r>
       <r>    20.5160     0.3941     4.8052 </r>
       <r>    20.6564     0.3740     4.8592 </r>
       <r>    20.7967     0.3269     4.9084 </r>
       <r>    20.9371     0.2913     4.9516 </r>
       <r>    21.0774     0.2715     4.9909 </r>
       <r>    21.2178     0.2592     5.0282 </r>
       <r>    21.3581     0.2345     5.0630 </r>
       <r>    21.4985     0.2299     5.0947 </r>
       <r>    21.6389     0.2466     5.1281 </r>
       <r>    21.7792     0.2576     5.1636 </r>
       <r>    21.9196     0.2589     5.1999 </r>
       <r>    22.0599     0.2545     5.2360 </r>
       <r>    22.2003     0.2517     5.2713 </r>
       <r>    22.3406     0.2597     5.3071 </r>
       <r>    22.4810     0.2776     5.3447 </r>
       <r>    22.6213     0.3068     5.3857 </r>
       <r>    22.7617     0.3429     5.4310 </r>
       <r>    22.9020     0.3962     5.4834 </r>
       <r>    23.0424     0.4235     5.5410 </r>
       <r>    23.1827     0.4464     5.6021 </r>
       <r>    23.3231     0.4416     5.6726 </r>
       <r>    23.4634     0.4390     5.7346 </r>
       <r>    23.6038     0.3759     5.7922 </r>
       <r>    23.7442     0.3104     5.8405 </r>
       <r>    23.8845     0.2691     5.8807 </r>
       <r>    24.0249     0.2802     5.9186 </r>
       <r>    24.1652     0.2890     5.9588 </r>
       <r>    24.3056     0.3020     5.9993 </r>
       <r>    24.4459     0.2932     6.0417 </r>
       <r>    24.5863     0.2814     6.0819 </r>
       <r>    24.7266     0.2731     6.1208 </r>
       <r>    24.8670     0.2705     6.1588 </r>
       <r>    25.0073     0.2788     6.1972 </r>
       <r>    25.1477     0.2939     6.2373 </r>
       <r>    25.2880     0.3116     6.2798 </r>
       <r>    25.4284     0.3279     6.3247 </r>
       <r>    25.5687     0.3428     6.3718 </r>
       <r>    25.7091     0.3570     6.4208 </r>
       <r>    25.8494     0.3705     6.4720 </r>
       <r>    25.9898     0.3994     6.5256 </r>
       <r>    26.1302     0.4411     6.5848 </r>
       <r>    26.2705     0.4486     6.6479 </r>
       <r>    26.4109     0.4255     6.7095 </r>
       <r>    26.5512     0.4059     6.7674 </r>
       <r>    26.6916     0.4082     6.8245 </r>
       <r>    26.8319     0.4052     6.8815 </r>
       <r>    26.9723     0.3795     6.9378 </r>
       <r>    27.1126     0.3300     6.9875 </r>
       <r>    27.2530     0.2919     7.0310 </r>
       <r>    27.3933     0.2685     7.0701 </r>
       <r>    27.5337     0.2508     7.1068 </r>
       <r>    27.6740     0.2233     7.1400 </r>
       <r>    27.8144     0.2080     7.1703 </r>
       <r>    27.9547     0.1954     7.1985 </r>
       <r>    28.0951     0.1951     7.2258 </r>
       <r>    28.2355     0.1989     7.2534 </r>
       <r>    28.3758     0.2059     7.2818 </r>
       <r>    28.5162     0.2162     7.3114 </r>
       <r>    28.6565     0.2272     7.3425 </r>
       <r>    28.7969     0.2370     7.3751 </r>
       <r>    28.9372     0.2453     7.4090 </r>
       <r>    29.0776     0.2524     7.4439 </r>
       <r>    29.2179     0.2582     7.4797 </r>
       <r>    29.3583     0.2607     7.5163 </r>
       <r>    29.4986     0.2582     7.5528 </r>
       <r>    29.6390     0.2489     7.5884 </r>
       <r>    29.7793     0.2329     7.6223 </r>
       <r>    29.9197     0.1912     7.6531 </r>
       <r>    30.0600     0.1551     7.6763 </r>
       <r>    30.2004     0.1518     7.6978 </r>
       <r>    30.3408     0.1482     7.7189 </r>
       <r>    30.4811     0.1439     7.7394 </r>
       <r>    30.6215     0.1388     7.7592 </r>
       <r>    30.7618     0.1331     7.7783 </r>
       <r>    30.9022     0.1266     7.7966 </r>
       <r>    31.0425     0.1202     7.8139 </r>
       <r>    31.1829     0.1083     7.8300 </r>
       <r>    31.3232     0.1011     7.8446 </r>
       <r>    31.4636     0.0969     7.8585 </r>
       <r>    31.6039     0.0930     7.8718 </r>
       <r>    31.7443     0.0899     7.8846 </r>
       <r>    31.8846     0.0850     7.8969 </r>
       <r>    32.0250     0.0772     7.9084 </r>
       <r>    32.1653     0.0716     7.9188 </r>
       <r>    32.3057     0.0658     7.9284 </r>
       <r>    32.4461     0.0597     7.9373 </r>
       <r>    32.5864     0.0535     7.9452 </r>
       <r>    32.7268     0.0479     7.9523 </r>
       <r>    32.8671     0.0429     7.9587 </r>
       <r>    33.0075     0.0385     7.9644 </r>
       <r>    33.1478     0.0347     7.9695 </r>
       <r>    33.2882     0.0315     7.9741 </r>
       <r>    33.4285     0.0288     7.9784 </r>
       <r>    33.5689     0.0270     7.9823 </r>
       <r>    33.7092     0.0277     7.9861 </r>
       <r>    33.8496     0.0311     7.9902 </r>
       <r>    33.9899     0.0171     7.9940 </r>
       <r>    34.1303     0.0119     7.9959 </r>
       <r>    34.2706     0.0089     7.9973 </r>
       <r>    34.4110     0.0063     7.9984 </r>
       <r>    34.5514     0.0042     7.9991 </r>
       <r>    34.6917     0.0025     7.9996 </r>
       <r>    34.8321     0.0012     7.9999 </r>
       <r>    34.9724     0.0004     8.0000 </r>
       <r>    35.1128     0.0000     8.0000 </r>
       <r>    35.2531     0.0000     8.0000 </r>
       <r>    35.3935     0.0000     8.0000 </r>
       <r>    35.5338     0.0000     8.0000 </r>
       <r>    35.6742     0.0000     8.0000 </r>
       <r>    35.8145     0.0000     8.0000 </r>
       <r>    35.9549     0.0000     8.0000 </r>
       <r>    36.0952     0.0000     8.0000 </r>
       <r>    36.2356     0.0000     8.0000 </r>
       <r>    36.3759     0.0000     8.0000 </r>
       <r>    36.5163     0.0000     8.0000 </r>
       <r>    36.6567     0.0000     8.0000 </r>
       <r>    36.7970     0.0000     8.0000 </r>
       <r>    36.9374     0.0000     8.0000 </r>
       <r>    37.0777     0.0000     8.0000 </r>
      </set>
     </set>
    </array>
   </total>
  </dos>
 </calculation>
 <structure name="finalpos" >
  <crystal>
   <varray name="basis" >
    <v>       2.01687977       0.00000000       2.01687977 </v>
    <v>       2.01687977       2.01687977       0.00000000 </v>
    <v>       0.00000000       2.01687977       2.01687977 </v>
   </varray>
   <i name="volume">     16.40854317 </i>
   <varray name="rec_basis" >
    <v>       0.24790769      -0.24790769       0.24790769 </v>
    <v>       0.24790769       0.24790769      -0.24790769 </v>
    <v>      -0.24790769       0.24790769       0.24790769 </v>
   </varray>
  </crystal>
  <varray name="positions" >
   <v>       0.00000000       0.00000000       0.00000000 </v>
  </varray>
 </structure>
</modeling>
