       N       E                     dE             d eps       ncg     rms          rms(c)
DAV:   1     0.628408366432E+03    0.62841E+03   -0.34030E+04 10744   0.159E+03
DAV:   2    -0.530009908125E-01   -0.62846E+03   -0.60079E+03  9040   0.504E+02
DAV:   3    -0.376516868060E+02   -0.37599E+02   -0.35165E+02 10624   0.138E+02
DAV:   4    -0.387427022632E+02   -0.10910E+01   -0.10875E+01  9872   0.232E+01
DAV:   5    -0.387730563388E+02   -0.30354E-01   -0.30347E-01 10992   0.413E+00    0.284E+01
DAV:   6    -0.585545010669E+02   -0.19781E+02   -0.19487E+02 10376   0.167E+02    0.393E+01
DAV:   7    -0.339164683218E+02    0.24638E+02   -0.63543E+01 10304   0.107E+02    0.921E+00
DAV:   8    -0.335253189751E+02    0.39115E+00   -0.82821E+00 12568   0.312E+01    0.573E+00
DAV:   9    -0.334700709458E+02    0.55248E-01   -0.16666E+00 10448   0.204E+01    0.384E+00
DAV:  10    -0.333492164934E+02    0.12085E+00   -0.60948E-01 11240   0.923E+00    0.123E+00
DAV:  11    -0.333424065673E+02    0.68099E-02   -0.30591E-02 10200   0.163E+00    0.607E-01
DAV:  12    -0.333375361018E+02    0.48705E-02   -0.14949E-02 12272   0.124E+00    0.159E-01
DAV:  13    -0.333377176202E+02   -0.18152E-03   -0.16964E-03 10208   0.431E-01    0.123E-01
DAV:  14    -0.333375908746E+02    0.12675E-03   -0.32934E-04 12592   0.178E-01    0.337E-02
DAV:  15    -0.333375842107E+02    0.66639E-05   -0.76462E-05 11888   0.808E-02    0.877E-03
DAV:  16    -0.333375835398E+02    0.67091E-06   -0.31606E-06 10224   0.183E-02    0.461E-03
DAV:  17    -0.333375832172E+02    0.32262E-06   -0.55233E-07 10872   0.827E-03    0.960E-04
DAV:  18    -0.333375831787E+02    0.38495E-07   -0.45378E-08  9000   0.213E-03    0.388E-04
DAV:  19    -0.333375831447E+02    0.33982E-07   -0.37817E-09  5672   0.720E-04    0.163E-04
DAV:  20    -0.333375831283E+02    0.16456E-07   -0.13311E-09  5288   0.366E-04    0.541E-05
DAV:  21    -0.333375831299E+02   -0.16335E-08   -0.27830E-10  5200   0.162E-04
   1 F= -.33337583E+02 E0= -.33337370E+02  d E =-.333376E+02  mag=     0.0000
       N       E                     dE             d eps       ncg     rms          rms(c)
DAV:   1    -0.205673433327E+03   -0.17234E+03   -0.25515E+03  8800   0.697E+02    0.974E+01
DAV:   2    -0.753537785439E+02    0.13032E+03   -0.10261E+03  9936   0.266E+02    0.564E+01
DAV:   3    -0.683939140461E+02    0.69599E+01   -0.39821E+02  9952   0.195E+02    0.474E+01
DAV:   4    -0.360910111949E+02    0.32303E+02   -0.10302E+02 10168   0.112E+02    0.653E+00
DAV:   5    -0.355096496031E+02    0.58136E+00   -0.47674E+00 10312   0.196E+01    0.802E+00
DAV:   6    -0.351465124390E+02    0.36314E+00   -0.36424E+00 10616   0.255E+01    0.814E+00
DAV:   7    -0.345736717803E+02    0.57284E+00   -0.19152E+00 11136   0.173E+01    0.329E+00
DAV:   8    -0.344889240542E+02    0.84748E-01   -0.90761E-01 12448   0.879E+00    0.196E+00
DAV:   9    -0.344659134104E+02    0.23011E-01   -0.13260E-01 11464   0.432E+00    0.403E-01
DAV:  10    -0.344644556003E+02    0.14578E-02   -0.12744E-02 10328   0.109E+00    0.126E-01
DAV:  11    -0.344642380730E+02    0.21753E-03   -0.20929E-03 12016   0.421E-01    0.114E-01
DAV:  12    -0.344641653069E+02    0.72766E-04   -0.44894E-04 10808   0.264E-01    0.353E-02
DAV:  13    -0.344641622156E+02    0.30913E-05   -0.73404E-05 10816   0.947E-02    0.102E-02
DAV:  14    -0.344641613151E+02    0.90048E-06   -0.45887E-06  9784   0.220E-02    0.543E-03
DAV:  15    -0.344641611613E+02    0.15384E-06   -0.19753E-06 11768   0.168E-02    0.249E-03
DAV:  16    -0.344641611179E+02    0.43372E-07   -0.27018E-07  9968   0.703E-03    0.387E-04
DAV:  17    -0.344641611134E+02    0.45129E-08   -0.22723E-08  6880   0.134E-03
   2 F= -.34464161E+02 E0= -.34464604E+02  d E =-.112658E+01  mag=     0.0000
       N       E                     dE             d eps       ncg     rms          rms(c)
DAV:   1    -0.929363489383E+02   -0.58472E+02   -0.49799E+02  9888   0.244E+02    0.827E+01
DAV:   2    -0.180384370684E+03   -0.87448E+02   -0.13451E+03  9808   0.425E+02    0.720E+01
DAV:   3    -0.522718027019E+02    0.12811E+03   -0.42353E+02  9968   0.182E+02    0.272E+01
DAV:   4    -0.474906709430E+02    0.47811E+01   -0.92726E+00  9696   0.248E+01    0.236E+01
DAV:   5    -0.382772218780E+02    0.92134E+01   -0.88870E+00 11312   0.397E+01    0.124E+01
DAV:   6    -0.353901633976E+02    0.28871E+01   -0.83180E+00 11328   0.324E+01    0.319E+00
DAV:   7    -0.364935083911E+02   -0.11033E+01   -0.64422E+00 12400   0.231E+01    0.131E+01
DAV:   8    -0.356494576995E+02    0.84405E+00   -0.11597E+00 11264   0.102E+01    0.769E+00
DAV:   9    -0.351937864225E+02    0.45567E+00   -0.91425E-01 12304   0.847E+00    0.192E+00
DAV:  10    -0.351939565362E+02   -0.17011E-03   -0.41846E-02  9392   0.159E+00    0.176E+00
DAV:  11    -0.351755926790E+02    0.18364E-01   -0.21404E-01 11984   0.465E+00    0.107E+00
DAV:  12    -0.351658141947E+02    0.97785E-02   -0.65534E-02 11280   0.326E+00    0.314E-01
DAV:  13    -0.351653913860E+02    0.42281E-03   -0.74001E-03 10936   0.107E+00    0.174E-01
DAV:  14    -0.351650673994E+02    0.32399E-03   -0.84241E-04 12192   0.327E-01    0.324E-02
DAV:  15    -0.351650736087E+02   -0.62093E-05   -0.21482E-04 12832   0.130E-01    0.395E-02
DAV:  16    -0.351650619502E+02    0.11659E-04   -0.47507E-05 10912   0.764E-02    0.715E-03
DAV:  17    -0.351650623719E+02   -0.42174E-06   -0.42542E-06 12312   0.160E-02    0.395E-03
DAV:  18    -0.351650621243E+02    0.24766E-06   -0.50585E-07 11144   0.895E-03    0.631E-04
DAV:  19    -0.351650621013E+02    0.22921E-07   -0.82882E-08  8592   0.314E-03    0.149E-03
DAV:  20    -0.351650621111E+02   -0.97916E-08   -0.56253E-08  7296   0.306E-03
   3 F= -.35165062E+02 E0= -.35165197E+02  d E =-.182748E+01  mag=    -0.0000
       N       E                     dE             d eps       ncg     rms          rms(c)
DAV:   1    -0.367381986537E+02   -0.15731E+01   -0.38950E+01 10064   0.138E+02    0.155E+01
DAV:   2    -0.420431104804E+02   -0.53049E+01   -0.50527E+01 10240   0.802E+01    0.214E+01
DAV:   3    -0.355332221136E+02    0.65099E+01   -0.18572E+01 10128   0.555E+01    0.281E+00
DAV:   4    -0.355204981500E+02    0.12724E-01   -0.14327E+00 12240   0.793E+00    0.286E+00
DAV:   5    -0.354579180854E+02    0.62580E-01   -0.35065E-01 10704   0.703E+00    0.111E+00
DAV:   6    -0.354517704266E+02    0.61477E-02   -0.69971E-02 11056   0.397E+00    0.505E-01
DAV:   7    -0.354494339832E+02    0.23364E-02   -0.12755E-02 11392   0.138E+00    0.104E-01
DAV:   8    -0.354494800461E+02   -0.46063E-04   -0.73269E-04 10032   0.270E-01    0.370E-02
DAV:   9    -0.354495033749E+02   -0.23329E-04   -0.13184E-04 12192   0.107E-01    0.398E-02
DAV:  10    -0.354494857323E+02    0.17643E-04   -0.68603E-05 11280   0.898E-02    0.528E-03
DAV:  11    -0.354494850713E+02    0.66100E-06   -0.36539E-06 10288   0.206E-02    0.241E-03
DAV:  12    -0.354494849336E+02    0.13772E-06   -0.30454E-07 10528   0.659E-03    0.487E-04
DAV:  13    -0.354494848649E+02    0.68718E-07   -0.24210E-08  7248   0.168E-03    0.434E-04
DAV:  14    -0.354494848583E+02    0.66048E-08   -0.72133E-09  5376   0.949E-04
   4 F= -.35449485E+02 E0= -.35449781E+02  d E =-.284423E+00  mag=    -0.0000
       N       E                     dE             d eps       ncg     rms          rms(c)
DAV:   1    -0.382248530975E+02   -0.27754E+01   -0.77699E+01 10272   0.194E+02    0.216E+01
DAV:   2    -0.466794388754E+02   -0.84546E+01   -0.91966E+01 10080   0.112E+02    0.265E+01
DAV:   3    -0.357665533930E+02    0.10913E+02   -0.31246E+01 10016   0.741E+01    0.405E+00
DAV:   4    -0.357325066854E+02    0.34047E-01   -0.29927E+00 12624   0.122E+01    0.429E+00
DAV:   5    -0.355799169420E+02    0.15259E+00   -0.82012E-01 10656   0.107E+01    0.133E+00
DAV:   6    -0.355704051088E+02    0.95118E-02   -0.10167E-01 11152   0.505E+00    0.657E-01
DAV:   7    -0.355665379225E+02    0.38672E-02   -0.27262E-02 10752   0.203E+00    0.204E-01
DAV:   8    -0.355663558404E+02    0.18208E-03   -0.20384E-03 11088   0.523E-01    0.489E-02
DAV:   9    -0.355664240586E+02   -0.68218E-04   -0.23582E-04 11888   0.139E-01    0.686E-02
DAV:  10    -0.355663719125E+02    0.52146E-04   -0.19845E-04 11040   0.160E-01    0.738E-03
DAV:  11    -0.355663712334E+02    0.67906E-06   -0.91324E-06 10096   0.286E-02    0.162E-03
DAV:  12    -0.355663711182E+02    0.11527E-06   -0.35546E-07 10544   0.548E-03    0.610E-04
DAV:  13    -0.355663710388E+02    0.79332E-07   -0.23719E-08  7648   0.166E-03    0.361E-04
DAV:  14    -0.355663710304E+02    0.84092E-08   -0.58009E-09  5536   0.742E-04
   5 F= -.35566371E+02 E0= -.35566605E+02  d E =-.401309E+00  mag=    -0.0000
       N       E                     dE             d eps       ncg     rms          rms(c)
DAV:   1    -0.356629813821E+02   -0.96610E-01   -0.27321E+00 11136   0.340E+01    0.369E+00
DAV:   2    -0.359153699359E+02   -0.25239E+00   -0.28887E+00 10240   0.200E+01    0.558E+00
DAV:   3    -0.355855833904E+02    0.32979E+00   -0.12079E+00 10160   0.131E+01    0.110E+00
DAV:   4    -0.355885197515E+02   -0.29364E-02   -0.12098E-01 12192   0.535E+00    0.140E+00
DAV:   5    -0.355724435973E+02    0.16076E-01   -0.75982E-02 11296   0.452E+00    0.134E-01
DAV:   6    -0.355725805419E+02   -0.13694E-03   -0.44820E-03  9840   0.627E-01    0.509E-02
DAV:   7    -0.355725787491E+02    0.17928E-05   -0.21507E-04 11952   0.131E-01    0.311E-02
DAV:   8    -0.355725787137E+02    0.35434E-07   -0.33460E-05 10144   0.674E-02    0.106E-02
DAV:   9    -0.355725798265E+02   -0.11129E-05   -0.42840E-06 10416   0.306E-02    0.210E-03
DAV:  10    -0.355725799627E+02   -0.13620E-06   -0.40451E-07 11264   0.925E-03    0.698E-04
DAV:  11    -0.355725800641E+02   -0.10141E-06   -0.40204E-08  8928   0.228E-03    0.146E-04
DAV:  12    -0.355725800728E+02   -0.86857E-08   -0.34440E-09  5264   0.687E-04
   6 F= -.35572580E+02 E0= -.35572810E+02  d E =-.407518E+00  mag=    -0.0000
       N       E                     dE             d eps       ncg     rms          rms(c)
DAV:   1    -0.349528414046E+02    0.61974E+00   -0.84014E+01  9888   0.257E+02    0.147E+01
DAV:   2    -0.407618142200E+02   -0.58090E+01   -0.72170E+01 10224   0.874E+01    0.225E+01
DAV:   3    -0.359701856826E+02    0.47916E+01   -0.19082E+01 10576   0.498E+01    0.552E+00
DAV:   4    -0.357968513771E+02    0.17333E+00   -0.13351E+00 11920   0.173E+01    0.377E+00
DAV:   5    -0.357106383458E+02    0.86213E-01   -0.89935E-01 11104   0.149E+01    0.198E+00
DAV:   6    -0.356741831035E+02    0.36455E-01   -0.14072E-01 12512   0.595E+00    0.283E-01
DAV:   7    -0.356745150780E+02   -0.33197E-03   -0.17884E-02 10848   0.106E+00    0.213E-01
DAV:   8    -0.356742844209E+02    0.23066E-03   -0.89911E-04 12096   0.334E-01    0.901E-02
DAV:   9    -0.356742632433E+02    0.21178E-04   -0.22574E-04 12008   0.174E-01    0.159E-02
DAV:  10    -0.356742613444E+02    0.18989E-05   -0.20781E-05 10008   0.568E-02    0.544E-03
DAV:  11    -0.356742615258E+02   -0.18139E-06   -0.24659E-06 11432   0.164E-02    0.156E-03
DAV:  12    -0.356742615956E+02   -0.69829E-07   -0.20354E-07  9728   0.520E-03    0.503E-04
DAV:  13    -0.356742616143E+02   -0.18663E-07   -0.12148E-08  5840   0.168E-03    0.128E-04
DAV:  14    -0.356742616150E+02   -0.74579E-09   -0.34884E-09  5352   0.583E-04
   7 F= -.35674262E+02 E0= -.35673996E+02  d E =-.101682E+00  mag=     0.0000
       N       E                     dE             d eps       ncg     rms          rms(c)
DAV:   1    -0.356566085702E+02    0.17653E-01   -0.22379E+00 10400   0.440E+01    0.262E+00
DAV:   2    -0.358492610587E+02   -0.19265E+00   -0.20284E+00 10640   0.152E+01    0.391E+00
DAV:   3    -0.356823010980E+02    0.16696E+00   -0.64630E-01 10064   0.932E+00    0.788E-01
DAV:   4    -0.356811162760E+02    0.11848E-02   -0.41400E-02 12448   0.285E+00    0.733E-01
DAV:   5    -0.356769787790E+02    0.41375E-02   -0.20699E-02 11376   0.245E+00    0.228E-01
DAV:   6    -0.356765771745E+02    0.40160E-03   -0.25268E-03 11392   0.600E-01    0.459E-02
DAV:   7    -0.356765682956E+02    0.88789E-05   -0.28281E-04 11328   0.162E-01    0.303E-02
DAV:   8    -0.356765654738E+02    0.28218E-05   -0.23523E-05 10176   0.628E-02    0.101E-02
DAV:   9    -0.356765659655E+02   -0.49164E-06   -0.38457E-06 11840   0.184E-02    0.284E-03
DAV:  10    -0.356765660624E+02   -0.96970E-07   -0.30856E-07 10320   0.682E-03    0.502E-04
DAV:  11    -0.356765661340E+02   -0.71524E-07   -0.19137E-08  6320   0.143E-03    0.106E-04
DAV:  12    -0.356765661432E+02   -0.91914E-08   -0.34703E-09  5136   0.667E-04
   8 F= -.35676566E+02 E0= -.35676129E+02  d E =-.103986E+00  mag=    -0.0000
       N       E                     dE             d eps       ncg     rms          rms(c)
DAV:   1    -0.342019792500E+02    0.14746E+01   -0.75677E+01 12432   0.263E+02    0.123E+01
DAV:   2    -0.394582514757E+02   -0.52563E+01   -0.52082E+01  9920   0.742E+01    0.164E+01
DAV:   3    -0.357790418596E+02    0.36792E+01   -0.12271E+01  9888   0.454E+01    0.223E+00
DAV:   4    -0.357776541291E+02    0.13877E-02   -0.68625E-01 12720   0.758E+00    0.222E+00
DAV:   5    -0.357664242655E+02    0.11230E-01   -0.35336E-01 11232   0.963E+00    0.190E+00
DAV:   6    -0.357379628408E+02    0.28461E-01   -0.11214E-01 11728   0.478E+00    0.354E-01
DAV:   7    -0.357371128614E+02    0.84998E-03   -0.11111E-02 11344   0.971E-01    0.997E-02
DAV:   8    -0.357370897437E+02    0.23118E-04   -0.89983E-04 10032   0.297E-01    0.378E-02
DAV:   9    -0.357370934533E+02   -0.37096E-05   -0.70455E-05 11632   0.739E-02    0.182E-02
DAV:  10    -0.357370898654E+02    0.35879E-05   -0.19298E-05 10768   0.474E-02    0.381E-03
DAV:  11    -0.357370896236E+02    0.24176E-06   -0.21546E-06 10176   0.162E-02    0.253E-03
DAV:  12    -0.357370894144E+02    0.20921E-06   -0.44665E-07 10400   0.786E-03    0.108E-03
DAV:  13    -0.357370894072E+02    0.72123E-08   -0.50552E-08  8952   0.267E-03
   9 F= -.35737089E+02 E0= -.35737257E+02  d E =-.605233E-01  mag=    -0.0000
       N       E                     dE             d eps       ncg     rms          rms(c)
DAV:   1    -0.356085253640E+02    0.12856E+00   -0.45216E+00 10560   0.677E+01    0.276E+00
DAV:   2    -0.358996297083E+02   -0.29110E+00   -0.30258E+00 10576   0.169E+01    0.358E+00
DAV:   3    -0.357470418555E+02    0.15259E+00   -0.62035E-01 10048   0.101E+01    0.835E-01
DAV:   4    -0.357417518403E+02    0.52900E-02   -0.25423E-02 10912   0.169E+00    0.415E-01
DAV:   5    -0.357435079613E+02   -0.17561E-02   -0.21484E-02 11328   0.242E+00    0.659E-01
DAV:   6    -0.357399905695E+02    0.35174E-02   -0.14310E-02 11120   0.207E+00    0.574E-02
DAV:   7    -0.357400343575E+02   -0.43788E-04   -0.10840E-03  9888   0.228E-01    0.474E-02
DAV:   8    -0.357400193000E+02    0.15057E-04   -0.70230E-05 11952   0.928E-02    0.151E-02
DAV:   9    -0.357400190131E+02    0.28687E-06   -0.79864E-06 10928   0.252E-02    0.370E-03
DAV:  10    -0.357400187217E+02    0.29146E-06   -0.12434E-06 10288   0.143E-02    0.134E-03
DAV:  11    -0.357400185989E+02    0.12278E-06   -0.98427E-08  9152   0.430E-03    0.361E-04
DAV:  12    -0.357400185851E+02    0.13788E-07   -0.67606E-09  5552   0.951E-04    0.954E-05
DAV:  13    -0.357400185773E+02    0.77871E-08   -0.21545E-09  5104   0.353E-04
  10 F= -.35740019E+02 E0= -.35740103E+02  d E =-.634524E-01  mag=     0.0000
       N       E                     dE             d eps       ncg     rms          rms(c)
DAV:   1    -0.350192944539E+02    0.72072E+00   -0.18941E+01 10048   0.138E+02    0.413E+00
DAV:   2    -0.360248312965E+02   -0.10055E+01   -0.10855E+01 10176   0.281E+01    0.496E+00
DAV:   3    -0.357795147645E+02    0.24532E+00   -0.15009E+00 10384   0.145E+01    0.177E+00
DAV:   4    -0.357553118283E+02    0.24203E-01   -0.76110E-02 10720   0.316E+00    0.864E-01
DAV:   5    -0.357609733612E+02   -0.56615E-02   -0.74446E-02 11104   0.470E+00    0.129E+00
DAV:   6    -0.357473076604E+02    0.13666E-01   -0.48229E-02 11136   0.380E+00    0.122E-01
DAV:   7    -0.357474747150E+02   -0.16705E-03   -0.39596E-03 10752   0.470E-01    0.689E-02
DAV:   8    -0.357474599416E+02    0.14773E-04   -0.17842E-04 11680   0.161E-01    0.379E-02
DAV:   9    -0.357474553699E+02    0.45717E-05   -0.55202E-05 11328   0.772E-02    0.953E-03
DAV:  10    -0.357474555891E+02   -0.21927E-06   -0.49746E-06  9984   0.248E-02    0.156E-03
DAV:  11    -0.357474556294E+02   -0.40263E-07   -0.35564E-07 10240   0.775E-03    0.115E-03
DAV:  12    -0.357474556717E+02   -0.42333E-07   -0.50582E-08  8960   0.256E-03    0.118E-04
DAV:  13    -0.357474556768E+02   -0.50441E-08   -0.38000E-09  5568   0.687E-04
  11 F= -.35747456E+02 E0= -.35747438E+02  d E =-.743710E-02  mag=    -0.0000
       N       E                     dE             d eps       ncg     rms          rms(c)
DAV:   1    -0.357358240031E+02    0.11632E-01   -0.33081E-01 10560   0.185E+01    0.573E-01
DAV:   2    -0.357538062748E+02   -0.17982E-01   -0.18693E-01 10416   0.373E+00    0.725E-01
DAV:   3    -0.357481878130E+02    0.56185E-02   -0.30668E-02  9968   0.220E+00    0.251E-01
DAV:   4    -0.357480079046E+02    0.17991E-03   -0.34645E-03 11040   0.905E-01    0.191E-01
DAV:   5    -0.357476968088E+02    0.31110E-03   -0.81919E-04 10864   0.489E-01    0.776E-02
DAV:   6    -0.357476334255E+02    0.63383E-04   -0.28466E-04 10000   0.173E-01    0.191E-02
DAV:   7    -0.357476302589E+02    0.31666E-05   -0.42890E-05 11040   0.785E-02    0.115E-02
DAV:   8    -0.357476295723E+02    0.68658E-06   -0.38695E-06 10368   0.258E-02    0.369E-03
DAV:   9    -0.357476295450E+02    0.27327E-07   -0.91600E-07 11600   0.907E-03    0.177E-03
DAV:  10    -0.357476294841E+02    0.60947E-07   -0.12043E-07  9968   0.405E-03    0.202E-04
DAV:  11    -0.357476294716E+02    0.12420E-07   -0.34634E-09  5088   0.510E-04    0.957E-05
DAV:  12    -0.357476294645E+02    0.71359E-08   -0.74008E-10  4736   0.217E-04
  12 F= -.35747629E+02 E0= -.35747635E+02  d E =-.761089E-02  mag=    -0.0000
       N       E                     dE             d eps       ncg     rms          rms(c)
DAV:   1    -0.357299929098E+02    0.17637E-01   -0.66307E-01 10352   0.246E+01    0.953E-01
DAV:   2    -0.357647064153E+02   -0.34714E-01   -0.38694E-01 10048   0.584E+00    0.112E+00
DAV:   3    -0.357508881136E+02    0.13818E-01   -0.64652E-02  9968   0.318E+00    0.376E-01
DAV:   4    -0.357493730294E+02    0.15151E-02   -0.48904E-03 10480   0.788E-01    0.169E-01
DAV:   5    -0.357497965568E+02   -0.42353E-03   -0.53255E-03 11280   0.124E+00    0.295E-01
DAV:   6    -0.357490545785E+02    0.74198E-03   -0.24995E-03 10960   0.849E-01    0.224E-02
DAV:   7    -0.357490611225E+02   -0.65440E-05   -0.16515E-04 11968   0.979E-02    0.132E-02
DAV:   8    -0.357490607219E+02    0.40059E-06   -0.11520E-05 10544   0.432E-02    0.558E-03
DAV:   9    -0.357490605540E+02    0.16782E-06   -0.21222E-06 10112   0.152E-02    0.222E-03
DAV:  10    -0.357490604709E+02    0.83170E-07   -0.14544E-07 10288   0.487E-03    0.695E-04
DAV:  11    -0.357490604348E+02    0.36103E-07   -0.25829E-08  7664   0.162E-03    0.114E-04
DAV:  12    -0.357490604275E+02    0.72705E-08   -0.26476E-09  5040   0.485E-04
  13 F= -.35749060E+02 E0= -.35749088E+02  d E =-.143096E-02  mag=    -0.0000
       N       E                     dE             d eps       ncg     rms          rms(c)
DAV:   1    -0.357490603481E+02    0.86660E-07   -0.28529E-06 10320   0.510E-02    0.198E-03
DAV:   2    -0.357490605547E+02   -0.20664E-06   -0.16866E-06 10032   0.121E-02    0.232E-03
DAV:   3    -0.357490604625E+02    0.92195E-07   -0.27782E-07 10080   0.654E-03    0.793E-04
DAV:   4    -0.357490604520E+02    0.10523E-07   -0.18310E-08  4896   0.163E-03    0.335E-04
DAV:   5    -0.357490604523E+02   -0.25102E-09   -0.22812E-08  4824   0.264E-03
  14 F= -.35749060E+02 E0= -.35749088E+02  d E =-.143099E-02  mag=     0.0000
       N       E                     dE             d eps       ncg     rms          rms(c)
DAV:   1    -0.357573760124E+02   -0.83156E-02   -0.94961E-02  9984   0.596E+00    0.984E-01
DAV:   2    -0.357777168451E+02   -0.20341E-01   -0.20987E-01 10192   0.538E+00    0.159E+00
DAV:   3    -0.357494088940E+02    0.28308E-01   -0.98381E-02 10112   0.369E+00    0.206E-01
DAV:   4    -0.357494819128E+02   -0.73019E-04   -0.39167E-03 12160   0.779E-01    0.180E-01
DAV:   5    -0.357491920386E+02    0.28987E-03   -0.73271E-04 11520   0.393E-01    0.300E-02
DAV:   6    -0.357491896463E+02    0.23923E-05   -0.74728E-05 10144   0.689E-02    0.858E-03
DAV:   7    -0.357491891695E+02    0.47680E-06   -0.57623E-06 10400   0.290E-02    0.576E-03
DAV:   8    -0.357491893039E+02   -0.13443E-06   -0.12749E-06 11056   0.119E-02    0.206E-03
DAV:   9    -0.357491893824E+02   -0.78426E-07   -0.16332E-07 10160   0.480E-03    0.308E-04
DAV:  10    -0.357491894314E+02   -0.49033E-07   -0.78914E-09  5440   0.986E-04    0.114E-04
DAV:  11    -0.357491894534E+02   -0.21977E-07   -0.22585E-09  5040   0.523E-04    0.536E-05
DAV:  12    -0.357491894562E+02   -0.28122E-08   -0.59897E-10  4848   0.226E-04
  15 F= -.35749189E+02 E0= -.35749236E+02  d E =-.129004E-03  mag=    -0.0000
       N       E                     dE             d eps       ncg     rms          rms(c)
DAV:   1    -0.357492492704E+02   -0.59817E-04   -0.68047E-04  9984   0.505E-01    0.838E-02
DAV:   2    -0.357493999933E+02   -0.15072E-03   -0.15157E-03 10176   0.457E-01    0.134E-01
DAV:   3    -0.357491925511E+02    0.20744E-03   -0.70306E-04 10096   0.315E-01    0.166E-02
DAV:   4    -0.357491931536E+02   -0.60254E-06   -0.27438E-05 12192   0.642E-02    0.149E-02
DAV:   5    -0.357491909182E+02    0.22354E-05   -0.50055E-06 11648   0.326E-02    0.274E-03
DAV:   6    -0.357491908310E+02    0.87222E-07   -0.55690E-07 10208   0.631E-03    0.728E-04
DAV:   7    -0.357491907917E+02    0.39290E-07   -0.38282E-08  8976   0.234E-03    0.461E-04
DAV:   8    -0.357491907653E+02    0.26375E-07   -0.74763E-09  5072   0.940E-04    0.165E-04
DAV:   9    -0.357491907554E+02    0.98989E-08   -0.20366E-09  4592   0.533E-04
  16 F= -.35749191E+02 E0= -.35749236E+02  d E =-.130303E-03  mag=    -0.0000
       N       E                     dE             d eps       ncg     rms          rms(c)
DAV:   1    -0.357491534430E+02    0.37322E-04   -0.28977E-02 10112   0.383E+00    0.225E-01
DAV:   2    -0.357498680501E+02   -0.71461E-03   -0.12008E-02 10000   0.112E+00    0.210E-01
DAV:   3    -0.357494630548E+02    0.40500E-03   -0.24356E-03 10432   0.656E-01    0.124E-01
DAV:   4    -0.357494987330E+02   -0.35678E-04   -0.15912E-03 10976   0.659E-01    0.155E-01
DAV:   5    -0.357492892057E+02    0.20953E-03   -0.68050E-04 11056   0.444E-01    0.103E-02
DAV:   6    -0.357492912051E+02   -0.19995E-05   -0.52532E-05  9584   0.508E-02    0.629E-03
DAV:   7    -0.357492909770E+02    0.22808E-06   -0.33406E-06 12320   0.212E-02    0.373E-03
DAV:   8    -0.357492909833E+02   -0.62701E-08   -0.50981E-07 10064   0.869E-03    0.119E-03
DAV:   9    -0.357492909892E+02   -0.59390E-08   -0.54615E-08  9216   0.251E-03
  17 F= -.35749291E+02 E0= -.35749361E+02  d E =-.100234E-03  mag=    -0.0000
       N       E                     dE             d eps       ncg     rms          rms(c)
DAV:   1    -0.357492896840E+02    0.12993E-05   -0.91939E-04 10096   0.681E-01    0.400E-02
DAV:   2    -0.357493129842E+02   -0.23300E-04   -0.38022E-04  9984   0.200E-01    0.374E-02
DAV:   3    -0.357492997750E+02    0.13209E-04   -0.77304E-05 10448   0.117E-01    0.220E-02
DAV:   4    -0.357493008509E+02   -0.10759E-05   -0.50385E-05 10976   0.118E-01    0.275E-02
DAV:   5    -0.357492942977E+02    0.65533E-05   -0.21361E-05 11040   0.787E-02    0.185E-03
DAV:   6    -0.357492943576E+02   -0.59938E-07   -0.16668E-06  9568   0.906E-03    0.112E-03
DAV:   7    -0.357492943513E+02    0.63046E-08   -0.10544E-07 11328   0.379E-03    0.663E-04
DAV:   8    -0.357492943541E+02   -0.28012E-08   -0.14554E-08  5744   0.161E-03
  18 F= -.35749294E+02 E0= -.35749368E+02  d E =-.103599E-03  mag=     0.0000
       N       E                     dE             d eps       ncg     rms          rms(c)
DAV:   1    -0.357494954018E+02   -0.20105E-03   -0.12285E-02 11024   0.238E+00    0.202E-01
DAV:   2    -0.357501584620E+02   -0.66306E-03   -0.85808E-03 10000   0.108E+00    0.263E-01
DAV:   3    -0.357493913679E+02    0.76709E-03   -0.27930E-03 10096   0.684E-01    0.703E-02
DAV:   4    -0.357493983596E+02   -0.69916E-05   -0.48466E-04 12224   0.346E-01    0.915E-02
DAV:   5    -0.357493298715E+02    0.68488E-04   -0.31472E-04 11280   0.297E-01    0.122E-02
DAV:   6    -0.357493300991E+02   -0.22767E-06   -0.20616E-05 10416   0.477E-02    0.361E-03
DAV:   7    -0.357493301255E+02   -0.26334E-07   -0.11223E-06 11648   0.101E-02    0.208E-03
DAV:   8    -0.357493301822E+02   -0.56780E-07   -0.11689E-07  9728   0.440E-03    0.559E-04
DAV:   9    -0.357493302208E+02   -0.38557E-07   -0.13272E-08  5600   0.941E-04    0.125E-04
DAV:  10    -0.357493302306E+02   -0.97607E-08   -0.27228E-09  4784   0.594E-04
  19 F= -.35749330E+02 E0= -.35749412E+02  d E =-.358765E-04  mag=     0.0000
       N       E                     dE             d eps       ncg     rms          rms(c)
DAV:   1    -0.357497168755E+02   -0.38665E-03   -0.26970E-02 11136   0.353E+00    0.299E-01
DAV:   2    -0.357511627720E+02   -0.14459E-02   -0.18682E-02 10000   0.160E+00    0.390E-01
DAV:   3    -0.357494854745E+02    0.16773E-02   -0.61035E-03 10080   0.101E+00    0.104E-01
DAV:   4    -0.357495003102E+02   -0.14836E-04   -0.10671E-03 12192   0.514E-01    0.136E-01
DAV:   5    -0.357493494260E+02    0.15088E-03   -0.69303E-04 11280   0.441E-01    0.179E-02
DAV:   6    -0.357493499483E+02   -0.52234E-06   -0.45374E-05 10384   0.705E-02    0.534E-03
DAV:   7    -0.357493499747E+02   -0.26366E-07   -0.24665E-06 11600   0.149E-02    0.307E-03
DAV:   8    -0.357493500654E+02   -0.90755E-07   -0.25849E-07 10496   0.649E-03    0.828E-04
DAV:   9    -0.357493501250E+02   -0.59572E-07   -0.29819E-08  8480   0.126E-03    0.183E-04
DAV:  10    -0.357493501405E+02   -0.15507E-07   -0.25621E-09  4960   0.677E-04    0.813E-05
DAV:  11    -0.357493501434E+02   -0.28504E-08   -0.76679E-10  4816   0.337E-04
  20 F= -.35749350E+02 E0= -.35749441E+02  d E =-.557893E-04  mag=    -0.0000
       N       E                     dE             d eps       ncg     rms          rms(c)
DAV:   1    -0.357491148317E+02    0.23531E-03   -0.13470E-02 10688   0.318E+00    0.145E-01
DAV:   2    -0.357496845829E+02   -0.56975E-03   -0.71880E-03  9920   0.826E-01    0.163E-01
DAV:   3    -0.357494478700E+02    0.23671E-03   -0.14658E-03 10448   0.544E-01    0.847E-02
DAV:   4    -0.357494353495E+02    0.12521E-04   -0.54683E-04 10720   0.387E-01    0.789E-02
DAV:   5    -0.357493733105E+02    0.62039E-04   -0.16524E-04 11024   0.217E-01    0.731E-03
DAV:   6    -0.357493739089E+02   -0.59847E-06   -0.16839E-05  9728   0.289E-02    0.349E-03
DAV:   7    -0.357493738525E+02    0.56403E-07   -0.78267E-07 11984   0.110E-02    0.209E-03
DAV:   8    -0.357493738422E+02    0.10365E-07   -0.11958E-07 10256   0.403E-03    0.481E-04
DAV:   9    -0.357493738331E+02    0.90695E-08   -0.81067E-09  5328   0.113E-03
  21 F= -.35749374E+02 E0= -.35749469E+02  d E =-.236897E-04  mag=     0.0000
       N       E                     dE             d eps       ncg     rms          rms(c)
DAV:   1    -0.357493522263E+02    0.21616E-04   -0.12567E-03 10672   0.972E-01    0.444E-02
DAV:   2    -0.357494060973E+02   -0.53871E-04   -0.67029E-04  9936   0.253E-01    0.498E-02
DAV:   3    -0.357493836575E+02    0.22440E-04   -0.13660E-04 10448   0.165E-01    0.258E-02
DAV:   4    -0.357493824151E+02    0.12424E-05   -0.50947E-05 10720   0.118E-01    0.241E-02
DAV:   5    -0.357493766548E+02    0.57603E-05   -0.15339E-05 11008   0.661E-02    0.225E-03
DAV:   6    -0.357493766835E+02   -0.28713E-07   -0.15698E-06  9744   0.883E-03    0.107E-03
DAV:   7    -0.357493766707E+02    0.12800E-07   -0.73211E-08 10416   0.339E-03    0.638E-04
DAV:   8    -0.357493766655E+02    0.52314E-08   -0.98957E-09  4952   0.125E-03
  22 F= -.35749377E+02 E0= -.35749473E+02  d E =-.265222E-04  mag=     0.0000
       N       E                     dE             d eps       ncg     rms          rms(c)
DAV:   1    -0.357495865825E+02   -0.20991E-03   -0.47168E-03 10416   0.160E+00    0.178E-01
DAV:   2    -0.357502357080E+02   -0.64913E-03   -0.68931E-03 10256   0.983E-01    0.271E-01
DAV:   3    -0.357493935902E+02    0.84212E-03   -0.29278E-03 10080   0.650E-01    0.376E-02
DAV:   4    -0.357493924548E+02    0.11354E-05   -0.12400E-04 12288   0.134E-01    0.359E-02
DAV:   5    -0.357493830921E+02    0.93627E-05   -0.56396E-05 11344   0.126E-01    0.943E-03
DAV:   6    -0.357493825068E+02    0.58527E-06   -0.48537E-06 12288   0.259E-02    0.253E-03
DAV:   7    -0.357493825503E+02   -0.43445E-07   -0.41912E-07 11888   0.599E-03    0.896E-04
DAV:   8    -0.357493826050E+02   -0.54750E-07   -0.52648E-08  8384   0.281E-03    0.346E-04
DAV:   9    -0.357493826347E+02   -0.29691E-07   -0.46866E-09  5008   0.782E-04    0.111E-04
DAV:  10    -0.357493826434E+02   -0.86893E-08   -0.10242E-09  4768   0.389E-04
  23 F= -.35749383E+02 E0= -.35749480E+02  d E =-.597788E-05  mag=     0.0000
       N       E                     dE             d eps       ncg     rms          rms(c)
DAV:   1    -0.357493857877E+02   -0.31529E-05   -0.72102E-05 10432   0.197E-01    0.220E-02
DAV:   2    -0.357493964584E+02   -0.10671E-04   -0.10544E-04 10240   0.122E-01    0.335E-02
DAV:   3    -0.357493830944E+02    0.13364E-04   -0.44724E-05 10064   0.805E-02    0.462E-03
DAV:   4    -0.357493830024E+02    0.91983E-07   -0.19098E-06 12272   0.166E-02    0.448E-03
DAV:   5    -0.357493828322E+02    0.17023E-06   -0.87052E-07 11344   0.157E-02    0.116E-03
DAV:   6    -0.357493828151E+02    0.17113E-07   -0.73889E-08  9176   0.317E-03    0.315E-04
DAV:   7    -0.357493828029E+02    0.12149E-07   -0.57947E-09  4672   0.779E-04    0.107E-04
DAV:   8    -0.357493827971E+02    0.58553E-08   -0.20828E-09  4528   0.530E-04
  24 F= -.35749383E+02 E0= -.35749480E+02  d E =-.613153E-05  mag=    -0.0000
