 running on   24 total cores
 distrk:  each k-point on   24 cores,    1 groups
 distr:  one band on    6 cores,    4 groups
 using from now: INCAR     
 vasp.5.4.4.18Apr17-6-g9f103f2a35 (build Jan 03 2018 06:08:52) complex          
  
 POSCAR found :  2 types and       5 ions
 scaLAPACK will be used
 WARNING: for PREC=h ENMAX is automatically increase by 25 %
        this was not the case for versions prior to vasp.4.4
 WARNING: for PREC=h ENMAX is automatically increase by 25 %
        this was not the case for versions prior to vasp.4.4
 LDA part: xc-table for Pade appr. of Perdew
 POSCAR, INCAR and KPOINTS ok, starting setup
 FFT: planning ...
 WAVECAR not read
 entering main loop
       N       E                     dE             d eps       ncg     rms          rms(c)
DAV:   1     0.847389534187E+03    0.84739E+03   -0.40955E+04  7280   0.196E+03
DAV:   2     0.214124208467E+02   -0.82598E+03   -0.79624E+03  6376   0.611E+02
DAV:   3    -0.314487620818E+02   -0.52861E+02   -0.49061E+02  6884   0.175E+02
DAV:   4    -0.328779431287E+02   -0.14292E+01   -0.14092E+01  7016   0.283E+01
DAV:   5    -0.329123176097E+02   -0.34374E-01   -0.34370E-01  7128   0.420E+00    0.204E+01
DAV:   6    -0.339333715652E+02   -0.10211E+01   -0.56744E+01  7128   0.917E+01    0.236E+01
DAV:   7    -0.284269095952E+02    0.55065E+01   -0.19999E+01  7072   0.509E+01    0.176E+00
DAV:   8    -0.284220532598E+02    0.48563E-02   -0.25164E-01  6716   0.381E+00    0.103E+00
DAV:   9    -0.284161107658E+02    0.59425E-02   -0.21587E-02  8048   0.155E+00    0.624E-01
DAV:  10    -0.284192981600E+02   -0.31874E-02   -0.39674E-03  7416   0.679E-01    0.398E-01
DAV:  11    -0.284200174309E+02   -0.71927E-03   -0.19555E-03  8236   0.504E-01    0.113E-01
DAV:  12    -0.284201369071E+02   -0.11948E-03   -0.51668E-04  8244   0.230E-01    0.381E-02
DAV:  13    -0.284201650951E+02   -0.28188E-04   -0.58378E-05  6568   0.856E-02    0.185E-02
DAV:  14    -0.284201644815E+02    0.61366E-06   -0.51795E-06  7416   0.240E-02    0.409E-03
DAV:  15    -0.284201649795E+02   -0.49804E-06   -0.55650E-07  6744   0.790E-03    0.150E-03
DAV:  16    -0.284201650788E+02   -0.99284E-07   -0.28045E-08  6016   0.176E-03    0.587E-04
DAV:  17    -0.284201651305E+02   -0.51688E-07   -0.80744E-09  3452   0.890E-04    0.454E-04
DAV:  18    -0.284201651503E+02   -0.19794E-07   -0.40224E-09  3392   0.546E-04    0.169E-04
DAV:  19    -0.284201651522E+02   -0.18936E-08   -0.17202E-09  3320   0.299E-04
   1 F= -.28420165E+02 E0= -.28420354E+02  d E =-.284202E+02  mag=     0.1658
 curvature:   0.00 expect dE= 0.000E+00 dE for cont linesearch  0.000E+00
 trial: gam= 0.00000 g(F)=  0.127E-01 g(S)=  0.130E+00 ort = 0.000E+00 (trialstep = 0.100E+01)
 search vector abs. value=  0.143E+00
 bond charge predicted
       N       E                     dE             d eps       ncg     rms          rms(c)
DAV:   1    -0.397142736781E+02   -0.11294E+02   -0.10819E+02  6472   0.166E+02    0.327E+01
DAV:   2    -0.410106858100E+02   -0.12964E+01   -0.17432E+02  6920   0.130E+02    0.293E+01
DAV:   3    -0.285569230438E+02    0.12454E+02   -0.37305E+01  7080   0.733E+01    0.414E+00
DAV:   4    -0.284601148996E+02    0.96808E-01   -0.13521E+00  6656   0.896E+00    0.129E+00
DAV:   5    -0.284394842713E+02    0.20631E-01   -0.24612E-02  8076   0.130E+00    0.258E-01
DAV:   6    -0.284389722311E+02    0.51204E-03   -0.21548E-03  6792   0.445E-01    0.504E-02
DAV:   7    -0.284389573104E+02    0.14921E-04   -0.11531E-04  7104   0.118E-01    0.324E-02
DAV:   8    -0.284389559890E+02    0.13214E-05   -0.10303E-05  7376   0.309E-02    0.197E-02
DAV:   9    -0.284389572088E+02   -0.12199E-05   -0.17435E-06  8016   0.125E-02    0.133E-02
DAV:  10    -0.284389605853E+02   -0.33765E-05   -0.22311E-06  7380   0.153E-02    0.150E-02
DAV:  11    -0.284389577372E+02    0.28482E-05   -0.28772E-06  7096   0.187E-02    0.144E-02
DAV:  12    -0.284389518629E+02    0.58743E-05   -0.18597E-05  7552   0.440E-02    0.841E-03
DAV:  13    -0.284389534544E+02   -0.15915E-05   -0.41833E-06  8272   0.191E-02    0.261E-03
DAV:  14    -0.284389542933E+02   -0.83891E-06   -0.39386E-07  6636   0.630E-03    0.827E-04
DAV:  15    -0.284389542370E+02    0.56300E-07   -0.11772E-07  7060   0.340E-03    0.380E-04
DAV:  16    -0.284389541401E+02    0.96941E-07   -0.82649E-09  3276   0.101E-03    0.211E-04
DAV:  17    -0.284389541234E+02    0.16647E-07   -0.48655E-09  3240   0.821E-04    0.158E-04
DAV:  18    -0.284389541216E+02    0.18426E-08   -0.62168E-09  3236   0.768E-04
   2 F= -.28438954E+02 E0= -.28439350E+02  d E =-.187890E-01  mag=     0.0001
 trial-energy change:   -0.018789  1 .order   -0.022121   -0.142549    0.098308
 step:   0.5715(harm=  0.5918)  dis= 0.00539  next Energy=   -28.460278 (dE=-0.401E-01)
 bond charge predicted
       N       E                     dE             d eps       ncg     rms          rms(c)
DAV:   1    -0.305151258657E+02   -0.20762E+01   -0.19765E+01  6616   0.703E+01    0.143E+01
DAV:   2    -0.309391546025E+02   -0.42403E+00   -0.23695E+01  6888   0.604E+01    0.134E+01
DAV:   3    -0.284958313812E+02    0.24433E+01   -0.80723E+00  6928   0.331E+01    0.184E+00
DAV:   4    -0.284604181581E+02    0.35413E-01   -0.10310E-01  6848   0.274E+00    0.271E-01
DAV:   5    -0.284599858137E+02    0.43234E-03   -0.32597E-03  6792   0.540E-01    0.952E-02
DAV:   6    -0.284599301414E+02    0.55672E-04   -0.21536E-04  7136   0.129E-01    0.229E-02
DAV:   7    -0.284599195410E+02    0.10600E-04   -0.29773E-05  7040   0.539E-02    0.552E-03
DAV:   8    -0.284599178309E+02    0.17101E-05   -0.15759E-06  6764   0.114E-02    0.225E-03
DAV:   9    -0.284599173434E+02    0.48753E-06   -0.15312E-07  7392   0.369E-03    0.517E-04
DAV:  10    -0.284599172899E+02    0.53487E-07   -0.12511E-08  4108   0.985E-04    0.381E-04
DAV:  11    -0.284599173082E+02   -0.18343E-07   -0.19943E-09  3416   0.443E-04    0.475E-04
DAV:  12    -0.284599172780E+02    0.30221E-07   -0.31040E-09  3348   0.695E-04    0.441E-04
DAV:  13    -0.284599172787E+02   -0.69667E-09   -0.44246E-10  3260   0.274E-04
   3 F= -.28459917E+02 E0= -.28460238E+02  d E =-.397521E-01  mag=     0.0020
 curvature:  -0.30 expect dE=-0.195E-02 dE for cont linesearch -0.537E-06
 trial: gam= 0.04985 g(F)=  0.457E-02 g(S)=  0.203E-02 ort =-0.509E-03 (trialstep = 0.914E+00)
 search vector abs. value=  0.690E-02
 bond charge predicted
       N       E                     dE             d eps       ncg     rms          rms(c)
DAV:   1    -0.283606030918E+02    0.99314E-01   -0.22787E+00  9704   0.587E+01    0.118E+00
DAV:   2    -0.284702565904E+02   -0.10965E+00   -0.12275E+00  6568   0.914E+00    0.728E-01
DAV:   3    -0.284667647724E+02    0.34918E-02   -0.48093E-02  7600   0.262E+00    0.423E-01
DAV:   4    -0.284647056269E+02    0.20591E-02   -0.44580E-03  7704   0.792E-01    0.148E-01
DAV:   5    -0.284643757785E+02    0.32985E-03   -0.73918E-04  7728   0.300E-01    0.317E-02
DAV:   6    -0.284643699708E+02    0.58076E-05   -0.11030E-04  7312   0.117E-01    0.106E-02
DAV:   7    -0.284643696598E+02    0.31104E-06   -0.66216E-06  6804   0.213E-02    0.392E-03
DAV:   8    -0.284643693972E+02    0.26265E-06   -0.56059E-07  7936   0.772E-03    0.131E-03
DAV:   9    -0.284643694044E+02   -0.72887E-08   -0.54620E-08  6260   0.296E-03
   4 F= -.28464369E+02 E0= -.28464722E+02  d E =-.445213E-02  mag=     0.0049
 trial-energy change:   -0.004452  1 .order   -0.004443   -0.006008   -0.002879
 step:   1.7554(harm=  1.7554)  dis= 0.01142  next Energy=   -28.465685 (dE=-0.577E-02)
 bond charge predicted
       N       E                     dE             d eps       ncg     rms          rms(c)
DAV:   1    -0.283778077179E+02    0.86562E-01   -0.19291E+00  9688   0.540E+01    0.109E+00
DAV:   2    -0.284706390480E+02   -0.92831E-01   -0.10399E+00  6552   0.841E+00    0.672E-01
DAV:   3    -0.284676725387E+02    0.29665E-02   -0.41008E-02  7624   0.242E+00    0.390E-01
DAV:   4    -0.284659175105E+02    0.17550E-02   -0.37548E-03  7744   0.730E-01    0.136E-01
DAV:   5    -0.284656372338E+02    0.28028E-03   -0.63250E-04  7704   0.277E-01    0.289E-02
DAV:   6    -0.284656324549E+02    0.47789E-05   -0.94364E-05  7288   0.108E-01    0.978E-03
DAV:   7    -0.284656320887E+02    0.36624E-06   -0.55734E-06  6812   0.194E-02    0.351E-03
DAV:   8    -0.284656318233E+02    0.26539E-06   -0.47145E-07  8008   0.711E-03    0.768E-04
DAV:   9    -0.284656318106E+02    0.12697E-07   -0.32445E-08  5776   0.245E-03    0.207E-04
DAV:  10    -0.284656318085E+02    0.21464E-08   -0.35659E-09  3400   0.782E-04
   5 F= -.28465632E+02 E0= -.28466013E+02  d E =-.571453E-02  mag=     0.0061
 curvature:  -0.92 expect dE=-0.585E-03 dE for cont linesearch -0.431E-05
 trial: gam= 0.13273 g(F)=  0.248E-03 g(S)=  0.387E-03 ort =-0.180E-03 (trialstep = 0.108E+01)
 search vector abs. value=  0.709E-03
 bond charge predicted
       N       E                     dE             d eps       ncg     rms          rms(c)
DAV:   1    -0.284670109631E+02   -0.13792E-02   -0.20915E-01  7872   0.107E+01    0.724E-01
DAV:   2    -0.284688495021E+02   -0.18385E-02   -0.77552E-02  6696   0.314E+00    0.424E-01
DAV:   3    -0.284670572297E+02    0.17923E-02   -0.72978E-03  6984   0.104E+00    0.258E-01
DAV:   4    -0.284661542869E+02    0.90294E-03   -0.19421E-03  7688   0.506E-01    0.343E-02
DAV:   5    -0.284661465767E+02    0.77102E-05   -0.27259E-04  6544   0.215E-01    0.137E-02
DAV:   6    -0.284661437855E+02    0.27911E-05   -0.12540E-05  8496   0.370E-02    0.543E-03
DAV:   7    -0.284661440961E+02   -0.31053E-06   -0.11608E-06  6804   0.107E-02    0.151E-03
DAV:   8    -0.284661441420E+02   -0.45988E-07   -0.57718E-08  6888   0.226E-03    0.614E-04
DAV:   9    -0.284661441554E+02   -0.13324E-07   -0.71243E-09  3384   0.116E-03    0.501E-04
DAV:  10    -0.284661441667E+02   -0.11321E-07   -0.36842E-09  3280   0.555E-04    0.422E-04
DAV:  11    -0.284661441705E+02   -0.37853E-08   -0.36285E-09  3256   0.565E-04
   6 F= -.28466144E+02 E0= -.28466534E+02  d E =-.512362E-03  mag=     0.0044
 trial-energy change:   -0.000512  1 .order   -0.000510   -0.000662   -0.000359
 step:   2.2693(harm=  2.3659)  dis= 0.00241  next Energy=   -28.466344 (dE=-0.712E-03)
 bond charge predicted
       N       E                     dE             d eps       ncg     rms          rms(c)
DAV:   1    -0.284673544400E+02   -0.12103E-02   -0.25063E-01  7872   0.117E+01    0.790E-01
DAV:   2    -0.284695873064E+02   -0.22329E-02   -0.93011E-02  6704   0.343E+00    0.464E-01
DAV:   3    -0.284674471323E+02    0.21402E-02   -0.87025E-03  6992   0.114E+00    0.283E-01
DAV:   4    -0.284663640491E+02    0.10831E-02   -0.23325E-03  7680   0.554E-01    0.375E-02
DAV:   5    -0.284663548714E+02    0.91777E-05   -0.32765E-04  6536   0.235E-01    0.149E-02
DAV:   6    -0.284663515900E+02    0.32814E-05   -0.15052E-05  8504   0.406E-02    0.594E-03
DAV:   7    -0.284663519704E+02   -0.38035E-06   -0.13966E-06  6820   0.118E-02    0.165E-03
DAV:   8    -0.284663520237E+02   -0.53353E-07   -0.70011E-08  7168   0.247E-03    0.681E-04
DAV:   9    -0.284663520404E+02   -0.16620E-07   -0.97322E-09  3456   0.136E-03    0.535E-04
DAV:  10    -0.284663520512E+02   -0.10821E-07   -0.43154E-09  3308   0.558E-04    0.458E-04
DAV:  11    -0.284663520558E+02   -0.46639E-08   -0.45141E-09  3288   0.645E-04
   7 F= -.28466352E+02 E0= -.28466752E+02  d E =-.720247E-03  mag=     0.0017
 curvature:  -1.36 expect dE=-0.219E-03 dE for cont linesearch -0.470E-06
 trial: gam= 0.18083 g(F)=  0.297E-04 g(S)=  0.131E-03 ort = 0.156E-04 (trialstep = 0.132E+01)
 search vector abs. value=  0.189E-03
 bond charge predicted
       N       E                     dE             d eps       ncg     rms          rms(c)
DAV:   1    -0.284820357410E+02   -0.15684E-01   -0.19038E-01  6808   0.913E+00    0.130E+00
DAV:   2    -0.284852893764E+02   -0.32536E-02   -0.19781E-01  6944   0.554E+00    0.116E+00
DAV:   3    -0.284668089732E+02    0.18480E-01   -0.58035E-02  6952   0.298E+00    0.200E-01
DAV:   4    -0.284663766186E+02    0.43235E-03   -0.10852E-03  7148   0.332E-01    0.339E-02
DAV:   5    -0.284663611503E+02    0.15468E-04   -0.59340E-05  7036   0.792E-02    0.141E-02
DAV:   6    -0.284663568099E+02    0.43404E-05   -0.30152E-06  8176   0.221E-02    0.147E-03
DAV:   7    -0.284663566207E+02    0.18919E-06   -0.31269E-07  6936   0.729E-03    0.862E-04
DAV:   8    -0.284663564627E+02    0.15801E-06   -0.22360E-08  4644   0.150E-03    0.259E-04
DAV:   9    -0.284663564472E+02    0.15429E-07   -0.31450E-09  3432   0.564E-04    0.183E-04
DAV:  10    -0.284663564419E+02    0.52896E-08   -0.10282E-09  3344   0.316E-04
   8 F= -.28466356E+02 E0= -.28466751E+02  d E =-.438611E-05  mag=     0.0011
 trial-energy change:   -0.000004  1 .order   -0.000009   -0.000216    0.000198
 step:   0.6669(harm=  0.6881)  dis= 0.00039  next Energy=   -28.466406 (dE=-0.539E-04)
 bond charge predicted
       N       E                     dE             d eps       ncg     rms          rms(c)
DAV:   1    -0.284702545756E+02   -0.38981E-02   -0.46721E-02  6808   0.451E+00    0.645E-01
DAV:   2    -0.284710549307E+02   -0.80036E-03   -0.49116E-02  6952   0.274E+00    0.575E-01
DAV:   3    -0.284665016386E+02    0.45533E-02   -0.14207E-02  6936   0.148E+00    0.985E-02
DAV:   4    -0.284664055521E+02    0.96087E-04   -0.27653E-04  7144   0.166E-01    0.165E-02
DAV:   5    -0.284664047477E+02    0.80440E-06   -0.14678E-05  7016   0.398E-02    0.709E-03
DAV:   6    -0.284664059705E+02   -0.12229E-05   -0.75458E-07  8080   0.110E-02    0.704E-04
DAV:   7    -0.284664060727E+02   -0.10215E-06   -0.83481E-08  6696   0.378E-03    0.450E-04
DAV:   8    -0.284664061444E+02   -0.71750E-07   -0.52446E-09  3440   0.781E-04    0.125E-04
DAV:   9    -0.284664061565E+02   -0.12107E-07   -0.13248E-09  3336   0.341E-04    0.943E-05
DAV:  10    -0.284664061565E+02    0.63665E-10   -0.32421E-10  3264   0.179E-04
   9 F= -.28466406E+02 E0= -.28466803E+02  d E =-.541006E-04  mag=     0.0005
 curvature:  -0.40 expect dE=-0.466E-05 dE for cont linesearch -0.530E-07
 trial: gam= 0.06060 g(F)=  0.966E-05 g(S)=  0.204E-05 ort = 0.502E-05 (trialstep = 0.119E+01)
 search vector abs. value=  0.130E-04
 reached required accuracy - stopping structural energy minimisation
 writing wavefunctions
