 running on   24 total cores
 distrk:  each k-point on   24 cores,    1 groups
 distr:  one band on    6 cores,    4 groups
 using from now: INCAR     
 vasp.5.4.4.18Apr17-6-g9f103f2a35 (build Jan 03 2018 06:08:52) complex          
  
 POSCAR found :  2 types and       4 ions
 scaLAPACK will be used
 WARNING: for PREC=h ENMAX is automatically increase by 25 %
        this was not the case for versions prior to vasp.4.4
 WARNING: for PREC=h ENMAX is automatically increase by 25 %
        this was not the case for versions prior to vasp.4.4
 LDA part: xc-table for Pade appr. of Perdew
 POSCAR, INCAR and KPOINTS ok, starting setup
 FFT: planning ...
 WAVECAR not read
 entering main loop
       N       E                     dE             d eps       ncg     rms          rms(c)
DAV:   1     0.132517308960E+03    0.13252E+03   -0.13497E+04  1920   0.113E+03
DAV:   2    -0.139269932469E+02   -0.14644E+03   -0.14178E+03  1664   0.302E+02
DAV:   3    -0.181145034937E+02   -0.41875E+01   -0.40985E+01  1932   0.570E+01
DAV:   4    -0.181905887466E+02   -0.76085E-01   -0.76056E-01  1844   0.766E+00
DAV:   5    -0.181926172363E+02   -0.20285E-02   -0.20284E-02  1912   0.133E+00    0.208E+01
DAV:   6    -0.296679970247E+02   -0.11475E+02   -0.18204E+02  1772   0.166E+02    0.270E+01
DAV:   7    -0.167361521326E+02    0.12932E+02   -0.26716E+01  1812   0.975E+01    0.745E+00
DAV:   8    -0.161883821427E+02    0.54777E+00   -0.45143E+00  2296   0.289E+01    0.236E+00
DAV:   9    -0.162428773701E+02   -0.54495E-01   -0.11732E+00  1912   0.145E+01    0.339E+00
DAV:  10    -0.161396633181E+02    0.10321E+00   -0.52815E-01  1828   0.107E+01    0.751E-01
DAV:  11    -0.161366625699E+02    0.30007E-02   -0.17272E-02  2020   0.135E+00    0.358E-01
DAV:  12    -0.161356750075E+02    0.98756E-03   -0.19199E-03  2356   0.524E-01    0.140E-01
DAV:  13    -0.161354973306E+02    0.17768E-03   -0.12473E-03  2400   0.420E-01    0.422E-02
DAV:  14    -0.161354954091E+02    0.19215E-05   -0.51307E-05  1700   0.533E-02    0.375E-02
DAV:  15    -0.161354862583E+02    0.91508E-05   -0.11670E-05  2412   0.401E-02    0.196E-02
DAV:  16    -0.161354832324E+02    0.30259E-05   -0.57579E-06  2336   0.289E-02    0.687E-03
DAV:  17    -0.161354827193E+02    0.51307E-06   -0.18351E-06  2364   0.166E-02    0.747E-04
DAV:  18    -0.161354827296E+02   -0.10356E-07   -0.52713E-08  1616   0.184E-03    0.644E-04
DAV:  19    -0.161354827361E+02   -0.64429E-08   -0.47470E-09   904   0.706E-04
   1 F= -.16135483E+02 E0= -.16134922E+02  d E =-.161355E+02  mag=    -0.0038
 curvature:   0.00 expect dE= 0.000E+00 dE for cont linesearch  0.000E+00
 trial: gam= 0.00000 g(F)=  0.000E+00 g(S)=  0.698E+01 ort = 0.000E+00 (trialstep = 0.100E+01)
 search vector abs. value=  0.698E+01
 bond charge predicted
       N       E                     dE             d eps       ncg     rms          rms(c)
DAV:   1    -0.126018099961E+03   -0.10988E+03   -0.20598E+03  1632   0.742E+02    0.722E+01
DAV:   2    -0.252888502348E+02    0.10073E+03   -0.45483E+02  1744   0.197E+02    0.176E+01
DAV:   3    -0.321701518293E+02   -0.68813E+01   -0.21431E+02  1776   0.122E+02    0.300E+01
DAV:   4    -0.182939843276E+02    0.13876E+02   -0.49846E+01  1936   0.922E+01    0.105E+01
DAV:   5    -0.183992882937E+02   -0.10530E+00   -0.30232E+01  1816   0.479E+01    0.113E+01
DAV:   6    -0.170186998032E+02    0.13806E+01   -0.18465E+00  1976   0.180E+01    0.487E+00
DAV:   7    -0.168487741673E+02    0.16993E+00   -0.64196E-01  2088   0.752E+00    0.129E+00
DAV:   8    -0.168480516098E+02    0.72256E-03   -0.14900E-02  1676   0.744E-01    0.109E+00
DAV:   9    -0.168433798588E+02    0.46718E-02   -0.13722E-01  1944   0.333E+00    0.790E-01
DAV:  10    -0.168386592987E+02    0.47206E-02   -0.23612E-02  1888   0.130E+00    0.443E-02
DAV:  11    -0.168387004663E+02   -0.41168E-04   -0.25733E-04  1732   0.105E-01    0.688E-02
DAV:  12    -0.168386634255E+02    0.37041E-04   -0.17811E-04  2052   0.117E-01    0.316E-03
DAV:  13    -0.168386637061E+02   -0.28061E-06   -0.31691E-06  1684   0.123E-02    0.406E-03
DAV:  14    -0.168386632822E+02    0.42394E-06   -0.20639E-07  2176   0.335E-03    0.208E-03
DAV:  15    -0.168386632091E+02    0.73085E-07   -0.31688E-08   976   0.129E-03    0.124E-03
DAV:  16    -0.168386632467E+02   -0.37610E-07   -0.15620E-08   944   0.660E-04    0.693E-04
DAV:  17    -0.168386632571E+02   -0.10422E-07   -0.32269E-08   896   0.137E-03    0.231E-04
DAV:  18    -0.168386632556E+02    0.15561E-08   -0.34771E-09   856   0.605E-04
   2 F= -.16838663E+02 E0= -.16838220E+02  d E =-.703181E+00  mag=    -0.0000
 trial-energy change:   -0.703181  1 .order   -1.118032   -6.975083    4.739019
 step:   0.5427(harm=  0.5954)  dis= 0.00000  next Energy=   -17.961890 (dE=-0.183E+01)
 bond charge predicted
       N       E                     dE             d eps       ncg     rms          rms(c)
DAV:   1    -0.826416400400E+02   -0.65803E+02   -0.63253E+02  1824   0.281E+02    0.820E+01
DAV:   2    -0.153865810106E+03   -0.71224E+02   -0.15481E+03  2272   0.368E+02    0.850E+01
DAV:   3    -0.361073587820E+02    0.11776E+03   -0.78863E+02  1908   0.189E+02    0.244E+01
DAV:   4    -0.301402239442E+02    0.59671E+01   -0.17839E+01  1928   0.398E+01    0.199E+01
DAV:   5    -0.229272206937E+02    0.72130E+01   -0.51096E+00  1884   0.308E+01    0.141E+01
DAV:   6    -0.243801910820E+02   -0.14530E+01   -0.62445E+01  2248   0.990E+01    0.316E+01
DAV:   7    -0.191620904371E+02    0.52181E+01   -0.12990E+01  2008   0.253E+01    0.143E+01
DAV:   8    -0.211740336369E+02   -0.20119E+01   -0.26133E+00  2228   0.127E+01    0.221E+01
DAV:   9    -0.178115398296E+02    0.33625E+01   -0.19965E+01  2064   0.337E+01    0.123E+00
DAV:  10    -0.178189644256E+02   -0.74246E-02   -0.25215E-01  1732   0.482E+00    0.434E-01
DAV:  11    -0.178249332581E+02   -0.59688E-02   -0.10765E-01  2380   0.283E+00    0.138E+00
DAV:  12    -0.178110887582E+02    0.13844E-01   -0.42468E-02  1868   0.256E+00    0.420E-01
DAV:  13    -0.178142344345E+02   -0.31457E-02   -0.39119E-03  1944   0.689E-01    0.703E-01
DAV:  14    -0.178132293040E+02    0.10051E-02   -0.36712E-04  1884   0.234E-01    0.616E-01
DAV:  15    -0.178103924915E+02    0.28368E-02   -0.45853E-03  2152   0.703E-01    0.286E-01
DAV:  16    -0.178101361592E+02    0.25633E-03   -0.22585E-04  2056   0.939E-02    0.242E-01
DAV:  17    -0.178097405244E+02    0.39563E-03   -0.40580E-04  2296   0.183E-01    0.145E-01
DAV:  18    -0.178095308929E+02    0.20963E-03   -0.59546E-04  2384   0.223E-01    0.306E-02
DAV:  19    -0.178095235160E+02    0.73769E-05   -0.38959E-05  2456   0.431E-02    0.935E-03
DAV:  20    -0.178095237673E+02   -0.25129E-06   -0.51515E-07  1704   0.461E-03    0.923E-03
DAV:  21    -0.178095231500E+02    0.61732E-06   -0.11801E-06  2300   0.941E-03    0.441E-03
DAV:  22    -0.178095229616E+02    0.18841E-06   -0.44920E-07  2428   0.589E-03    0.132E-03
DAV:  23    -0.178095229217E+02    0.39929E-07   -0.34437E-08   940   0.173E-03    0.461E-04
DAV:  24    -0.178095229002E+02    0.21484E-07   -0.13081E-08   932   0.731E-04    0.724E-05
DAV:  25    -0.178095228906E+02    0.96129E-08   -0.17358E-09   912   0.308E-04
   3 F= -.17809523E+02 E0= -.17809806E+02  d E =-.167404E+01  mag=     0.0000
 curvature:  -0.29 expect dE=-0.506E-03 dE for cont linesearch -0.506E-03
 ZBRENT: interpolating
 opt :   0.5343  next Energy=   -17.809985 (dE=-0.167E+01)
 bond charge predicted
       N       E                     dE             d eps       ncg     rms          rms(c)
DAV:   1    -0.178314679695E+02   -0.21945E-01   -0.19430E-01  1752   0.588E+00    0.176E+00
DAV:   2    -0.179828762877E+02   -0.15141E+00   -0.15987E+00  1796   0.142E+01    0.416E+00
DAV:   3    -0.178092461383E+02    0.17363E+00   -0.72999E-01  1760   0.110E+01    0.151E-01
DAV:   4    -0.178104038153E+02   -0.11577E-02   -0.16071E-02  1776   0.823E-01    0.233E-01
DAV:   5    -0.178100351861E+02    0.36863E-03   -0.23045E-03  1988   0.532E-01    0.175E-02
DAV:   6    -0.178100323492E+02    0.28369E-05   -0.47884E-05  1772   0.715E-02    0.574E-03
DAV:   7    -0.178100319150E+02    0.43420E-06   -0.19543E-06  2328   0.110E-02    0.132E-03
DAV:   8    -0.178100318197E+02    0.95302E-07   -0.40463E-07  2416   0.613E-03    0.143E-03
DAV:   9    -0.178100317232E+02    0.96465E-07   -0.84190E-08  1456   0.295E-03    0.112E-04
DAV:  10    -0.178100317211E+02    0.20614E-08   -0.34407E-09   848   0.409E-04
   4 F= -.17810032E+02 E0= -.17810355E+02  d E =-.167455E+01  mag=     0.0000
 curvature:  -0.27 expect dE=-0.154E-04 dE for cont linesearch -0.154E-04
 ZBRENT: interpolating
 opt :   0.5324  next Energy=   -17.810051 (dE=-0.167E+01)
 bond charge predicted
       N       E                     dE             d eps       ncg     rms          rms(c)
DAV:   1    -0.178110924769E+02   -0.10608E-02   -0.96078E-03  1752   0.131E+00    0.376E-01
DAV:   2    -0.178179109961E+02   -0.68185E-02   -0.71175E-02  1784   0.303E+00    0.948E-01
DAV:   3    -0.178100182614E+02    0.78927E-02   -0.38370E-02  1776   0.233E+00    0.385E-02
DAV:   4    -0.178100551424E+02   -0.36881E-04   -0.44597E-04  1672   0.116E-01    0.271E-02
DAV:   5    -0.178100512749E+02    0.38675E-05   -0.23557E-05  1968   0.549E-02    0.279E-03
DAV:   6    -0.178100511967E+02    0.78184E-07   -0.65095E-07  1672   0.853E-03    0.106E-03
DAV:   7    -0.178100511700E+02    0.26666E-07   -0.68860E-08  1412   0.269E-03    0.223E-04
DAV:   8    -0.178100511424E+02    0.27575E-07   -0.53263E-09   860   0.695E-04    0.490E-05
DAV:   9    -0.178100511384E+02    0.40400E-08   -0.11652E-09   808   0.298E-04
   5 F= -.17810051E+02 E0= -.17810383E+02  d E =-.167457E+01  mag=    -0.0000
 curvature:  -0.33 expect dE=-0.275E-08 dE for cont linesearch -0.275E-08
 trial: gam= 0.00000 g(F)=  0.597E-66 g(S)=  0.841E-08 ort =-0.242E-03 (trialstep = 0.906E+00)
 search vector abs. value=  0.851E-08
 reached required accuracy - stopping structural energy minimisation
 writing wavefunctions
