 running on   24 total cores
 distrk:  each k-point on   24 cores,    1 groups
 distr:  one band on    6 cores,    4 groups
 using from now: INCAR     
 vasp.5.4.4.18Apr17-6-g9f103f2a35 (build Jan 03 2018 06:08:52) complex          
  
 POSCAR found :  2 types and       8 ions
 scaLAPACK will be used
 WARNING: for PREC=h ENMAX is automatically increase by 25 %
        this was not the case for versions prior to vasp.4.4
 WARNING: for PREC=h ENMAX is automatically increase by 25 %
        this was not the case for versions prior to vasp.4.4
 LDA part: xc-table for Pade appr. of Perdew
 POSCAR, INCAR and KPOINTS ok, starting setup
 FFT: planning ...
 WAVECAR not read
 entering main loop
       N       E                     dE             d eps       ncg     rms          rms(c)
DAV:   1     0.857271424306E+03    0.85727E+03   -0.43874E+04 12440   0.163E+03
DAV:   2     0.122231610994E+02   -0.84505E+03   -0.80793E+03 10084   0.519E+02
DAV:   3    -0.445005854002E+02   -0.56724E+02   -0.52732E+02 11560   0.151E+02
DAV:   4    -0.464405512893E+02   -0.19400E+01   -0.19259E+01 11400   0.260E+01
DAV:   5    -0.464891237712E+02   -0.48572E-01   -0.48560E-01 11528   0.427E+00    0.292E+01
DAV:   6    -0.617206541923E+02   -0.15232E+02   -0.14510E+02 11260   0.135E+02    0.382E+01
DAV:   7    -0.404802194519E+02    0.21240E+02   -0.54210E+01 11224   0.880E+01    0.472E+00
DAV:   8    -0.404992359607E+02   -0.19017E-01   -0.38483E+00 12640   0.163E+01    0.359E+00
DAV:   9    -0.404740703966E+02    0.25166E-01   -0.54538E-01 12180   0.125E+01    0.301E+00
DAV:  10    -0.403982685247E+02    0.75802E-01   -0.34818E-01 11568   0.759E+00    0.847E-01
DAV:  11    -0.403995632486E+02   -0.12947E-02   -0.48088E-02 11888   0.335E+00    0.962E-01
DAV:  12    -0.403916936031E+02    0.78696E-02   -0.23479E-02 11452   0.282E+00    0.184E-01
DAV:  13    -0.403919407999E+02   -0.24720E-03   -0.55284E-03 12096   0.658E-01    0.172E-01
DAV:  14    -0.403915875533E+02    0.35325E-03   -0.82947E-04 12736   0.273E-01    0.432E-02
DAV:  15    -0.403915852090E+02    0.23443E-05   -0.11335E-04 12080   0.104E-01    0.157E-02
DAV:  16    -0.403915828847E+02    0.23243E-05   -0.78574E-06 11780   0.262E-02    0.435E-03
DAV:  17    -0.403915824947E+02    0.39003E-06   -0.13949E-06 11404   0.117E-02    0.156E-03
DAV:  18    -0.403915823874E+02    0.10727E-06   -0.66463E-08 10144   0.309E-03    0.628E-04
DAV:  19    -0.403915823053E+02    0.82178E-07   -0.18342E-08  5956   0.146E-03    0.402E-04
DAV:  20    -0.403915822868E+02    0.18470E-07   -0.78381E-09  5712   0.117E-03    0.100E-04
DAV:  21    -0.403915822866E+02    0.16553E-09   -0.10993E-09  5632   0.293E-04
   1 F= -.40391582E+02 E0= -.40391561E+02  d E =-.403916E+02  mag=     0.0000
 curvature:   0.00 expect dE= 0.000E+00 dE for cont linesearch  0.000E+00
 trial: gam= 0.00000 g(F)=  0.284E+00 g(S)=  0.378E+01 ort = 0.000E+00 (trialstep = 0.100E+01)
 search vector abs. value=  0.407E+01
 bond charge predicted
       N       E                     dE             d eps       ncg     rms          rms(c)
DAV:   1    -0.200491390315E+03   -0.16010E+03   -0.20178E+03 10036   0.549E+02    0.967E+01
DAV:   2    -0.956203084636E+02    0.10487E+03   -0.10061E+03 11548   0.248E+02    0.643E+01
DAV:   3    -0.656868975868E+02    0.29933E+02   -0.33234E+02 11184   0.175E+02    0.443E+01
DAV:   4    -0.424502814137E+02    0.23237E+02   -0.75314E+01 11960   0.944E+01    0.899E+00
DAV:   5    -0.420913657150E+02    0.35892E+00   -0.53460E+00 13012   0.308E+01    0.809E+00
DAV:   6    -0.413658604569E+02    0.72551E+00   -0.30998E+00 10824   0.181E+01    0.537E+00
DAV:   7    -0.412746714306E+02    0.91189E-01   -0.10857E+00 13028   0.143E+01    0.717E+00
DAV:   8    -0.409154350826E+02    0.35924E+00   -0.74217E-01 12664   0.111E+01    0.126E+00
DAV:   9    -0.409033296323E+02    0.12105E-01   -0.96969E-02 10512   0.264E+00    0.627E-01
DAV:  10    -0.409005157746E+02    0.28139E-02   -0.22064E-02 11888   0.120E+00    0.309E-01
DAV:  11    -0.409004141668E+02    0.10161E-03   -0.10067E-02 11420   0.103E+00    0.271E-01
DAV:  12    -0.408999015076E+02    0.51266E-03   -0.26943E-03 10728   0.536E-01    0.604E-02
DAV:  13    -0.408999020256E+02   -0.51792E-06   -0.18058E-04 11220   0.136E-01    0.579E-02
DAV:  14    -0.408998770600E+02    0.24966E-04   -0.69537E-05 11424   0.863E-02    0.932E-03
DAV:  15    -0.408998772106E+02   -0.15056E-06   -0.11987E-05 11564   0.274E-02    0.616E-03
DAV:  16    -0.408998771996E+02    0.10954E-07   -0.14580E-06 11072   0.124E-02    0.492E-03
DAV:  17    -0.408998770093E+02    0.19036E-06   -0.48363E-07 11424   0.647E-03    0.289E-03
DAV:  18    -0.408998770202E+02   -0.10950E-07   -0.14354E-07 11568   0.471E-03    0.335E-04
DAV:  19    -0.408998770257E+02   -0.55024E-08   -0.48964E-08  8184   0.150E-03
   2 F= -.40899877E+02 E0= -.40899123E+02  d E =-.508295E+00  mag=    -0.0000
 trial-energy change:   -0.508295  1 .order   -0.726465   -4.067543    2.614613
 step:   0.5605(harm=  0.6087)  dis= 0.02238  next Energy=   -41.493019 (dE=-0.110E+01)
 bond charge predicted
       N       E                     dE             d eps       ncg     rms          rms(c)
DAV:   1    -0.930561590110E+02   -0.52156E+02   -0.42785E+02 10720   0.210E+02    0.755E+01
DAV:   2    -0.154055074765E+03   -0.60999E+02   -0.84980E+02 10384   0.329E+02    0.685E+01
DAV:   3    -0.494066669876E+02    0.10465E+03   -0.29183E+02 11240   0.149E+02    0.203E+01
DAV:   4    -0.501451918797E+02   -0.73852E+00   -0.36475E+00 10600   0.115E+01    0.209E+01
DAV:   5    -0.499980118096E+02    0.14718E+00   -0.66306E-02 13012   0.204E+00    0.205E+01
DAV:   6    -0.492994120188E+02    0.69860E+00   -0.41398E-02 12680   0.261E+00    0.202E+01
DAV:   7    -0.466161909243E+02    0.26832E+01   -0.37018E+01 11832   0.397E+01    0.159E+01
DAV:   8    -0.461860012629E+02    0.43019E+00   -0.43942E+00 12592   0.197E+01    0.140E+01
DAV:   9    -0.449937224783E+02    0.11923E+01   -0.13692E+00 13120   0.146E+01    0.119E+01
DAV:  10    -0.429427876587E+02    0.20509E+01   -0.19671E+00 11664   0.132E+01    0.856E+00
DAV:  11    -0.424468169644E+02    0.49597E+00   -0.11370E+00 11128   0.135E+01    0.502E+00
DAV:  12    -0.422336718621E+02    0.21315E+00   -0.14789E-01 10920   0.316E+00    0.453E+00
DAV:  13    -0.419482716476E+02    0.28540E+00   -0.11854E-01 11744   0.162E+00    0.395E+00
DAV:  14    -0.415575838453E+02    0.39069E+00   -0.43093E-01 10360   0.398E+00    0.208E+00
DAV:  15    -0.414653016350E+02    0.92282E-01   -0.18602E-01 11656   0.411E+00    0.983E-01
DAV:  16    -0.414554347156E+02    0.98669E-02   -0.46113E-02 11280   0.201E+00    0.362E-01
DAV:  17    -0.414533611453E+02    0.20736E-02   -0.40203E-03 11296   0.478E-01    0.254E-01
DAV:  18    -0.414518402750E+02    0.15209E-02   -0.18099E-03 11208   0.382E-01    0.143E-01
DAV:  19    -0.414515001967E+02    0.34008E-03   -0.17387E-03 11416   0.371E-01    0.217E-02
DAV:  20    -0.414515084294E+02   -0.82328E-05   -0.14869E-04 13168   0.109E-01    0.318E-02
DAV:  21    -0.414515019272E+02    0.65022E-05   -0.22192E-05 11080   0.434E-02    0.167E-02
DAV:  22    -0.414514988307E+02    0.30965E-05   -0.65162E-06 13032   0.182E-02    0.642E-03
DAV:  23    -0.414514982832E+02    0.54751E-06   -0.14291E-06 13344   0.989E-03    0.124E-03
DAV:  24    -0.414514981753E+02    0.10787E-06   -0.15751E-07 11008   0.358E-03    0.938E-04
DAV:  25    -0.414514981584E+02    0.16935E-07   -0.26135E-08  7328   0.178E-03    0.482E-04
DAV:  26    -0.414514981915E+02   -0.33124E-07   -0.81181E-09  5520   0.923E-04    0.261E-04
DAV:  27    -0.414514981918E+02   -0.28194E-09   -0.41151E-09  5376   0.639E-04
   3 F= -.41451498E+02 E0= -.41450950E+02  d E =-.105992E+01  mag=    -0.0000
 curvature:  -0.30 expect dE=-0.405E-01 dE for cont linesearch -0.158E-03
 ZBRENT: interpolating
 opt :   0.5542  next Energy=   -41.451644 (dE=-0.106E+01)
 bond charge predicted
       N       E                     dE             d eps       ncg     rms          rms(c)
DAV:   1    -0.414625191283E+02   -0.11021E-01   -0.85641E-02 10520   0.321E+00    0.114E+00
DAV:   2    -0.414970169759E+02   -0.34498E-01   -0.28767E-01 11336   0.516E+00    0.209E+00
DAV:   3    -0.414526341883E+02    0.44383E-01   -0.14493E-01 11208   0.410E+00    0.468E-01
DAV:   4    -0.414517679744E+02    0.86621E-03   -0.99907E-03 11392   0.147E+00    0.123E-01
DAV:   5    -0.414516479856E+02    0.11999E-03   -0.61063E-04 10856   0.209E-01    0.590E-02
DAV:   6    -0.414516335559E+02    0.14430E-04   -0.10364E-04 12788   0.156E-01    0.459E-02
DAV:   7    -0.414516206159E+02    0.12940E-04   -0.50565E-05 11480   0.132E-01    0.653E-03
DAV:   8    -0.414516199616E+02    0.65428E-06   -0.47453E-06 10556   0.160E-02    0.348E-03
DAV:   9    -0.414516196930E+02    0.26867E-06   -0.33998E-07 12808   0.675E-03    0.637E-04
DAV:  10    -0.414516195764E+02    0.11657E-06   -0.47899E-08  9404   0.177E-03    0.216E-04
DAV:  11    -0.414516195358E+02    0.40600E-07   -0.15321E-09  5568   0.407E-04    0.597E-05
DAV:  12    -0.414516195252E+02    0.10608E-07   -0.57903E-10  5340   0.185E-04    0.182E-05
DAV:  13    -0.414516195253E+02   -0.13824E-09   -0.11938E-10  5288   0.103E-04
   4 F= -.41451620E+02 E0= -.41451076E+02  d E =-.106004E+01  mag=     0.0000
 curvature:  -0.28 expect dE=-0.365E-01 dE for cont linesearch -0.273E-05
 trial: gam= 0.03395 g(F)=  0.975E-01 g(S)=  0.342E-01 ort =-0.633E-02 (trialstep = 0.911E+00)
 search vector abs. value=  0.136E+00
 bond charge predicted
       N       E                     dE             d eps       ncg     rms          rms(c)
DAV:   1    -0.411801879232E+02    0.27143E+00   -0.11022E+01 11712   0.999E+01    0.428E+00
DAV:   2    -0.419024971086E+02   -0.72231E+00   -0.76654E+00 11264   0.235E+01    0.574E+00
DAV:   3    -0.416126692500E+02    0.28983E+00   -0.15583E+00 12120   0.164E+01    0.274E+00
DAV:   4    -0.415843617435E+02    0.28308E-01   -0.28419E-01 11424   0.887E+00    0.181E+00
DAV:   5    -0.415506159561E+02    0.33746E-01   -0.68354E-02 11432   0.405E+00    0.334E-01
DAV:   6    -0.415506342918E+02   -0.18336E-04   -0.16092E-02 12336   0.152E+00    0.423E-01
DAV:   7    -0.415496025572E+02    0.10317E-02   -0.45427E-03 11280   0.130E+00    0.800E-02
DAV:   8    -0.415495947096E+02    0.78476E-05   -0.60668E-04 10896   0.229E-01    0.470E-02
DAV:   9    -0.415495999181E+02   -0.52085E-05   -0.61522E-05 13328   0.718E-02    0.119E-02
DAV:  10    -0.415496003659E+02   -0.44784E-06   -0.88443E-06 11120   0.351E-02    0.382E-03
DAV:  11    -0.415496001524E+02    0.21351E-06   -0.99311E-07 11528   0.134E-02    0.190E-03
DAV:  12    -0.415496000549E+02    0.97492E-07   -0.11727E-07 11616   0.518E-03    0.232E-04
DAV:  13    -0.415496000317E+02    0.23203E-07   -0.10516E-08  5744   0.102E-03    0.959E-05
DAV:  14    -0.415496000241E+02    0.76325E-08   -0.24344E-09  5472   0.449E-04
   5 F= -.41549600E+02 E0= -.41548888E+02  d E =-.979805E-01  mag=    -0.0000
 trial-energy change:   -0.097980  1 .order   -0.097410   -0.119812   -0.075007
 step:   2.1982(harm=  2.4356)  dis= 0.05832  next Energy=   -41.604217 (dE=-0.153E+00)
 bond charge predicted
       N       E                     dE             d eps       ncg     rms          rms(c)
DAV:   1    -0.408831875649E+02    0.66641E+00   -0.22223E+01 11680   0.141E+02    0.619E+00
DAV:   2    -0.423401856556E+02   -0.14570E+01   -0.15501E+01 11272   0.338E+01    0.817E+00
DAV:   3    -0.417238441839E+02    0.61634E+00   -0.31615E+00 12072   0.236E+01    0.373E+00
DAV:   4    -0.416744556207E+02    0.49389E-01   -0.54323E-01 11480   0.125E+01    0.259E+00
DAV:   5    -0.416068768894E+02    0.67579E-01   -0.14594E-01 12232   0.557E+00    0.468E-01
DAV:   6    -0.416049846169E+02    0.18923E-02   -0.24804E-02 11608   0.141E+00    0.207E-01
DAV:   7    -0.416050097212E+02   -0.25104E-04   -0.32777E-03 11904   0.924E-01    0.177E-01
DAV:   8    -0.416048397722E+02    0.16995E-03   -0.91509E-04 11424   0.502E-01    0.624E-02
DAV:   9    -0.416048582812E+02   -0.18509E-04   -0.15699E-04 11604   0.116E-01    0.163E-02
DAV:  10    -0.416048579199E+02    0.36133E-06   -0.19065E-05 11904   0.615E-02    0.713E-03
DAV:  11    -0.416048575957E+02    0.32413E-06   -0.23684E-06 11712   0.232E-02    0.169E-03
DAV:  12    -0.416048574740E+02    0.12175E-06   -0.22345E-07 11920   0.605E-03    0.479E-04
DAV:  13    -0.416048574445E+02    0.29491E-07   -0.25502E-08  6928   0.181E-03    0.147E-04
DAV:  14    -0.416048574327E+02    0.11745E-07   -0.34315E-09  5552   0.607E-04    0.103E-04
DAV:  15    -0.416048574298E+02    0.29177E-08   -0.10571E-09  5512   0.413E-04
   6 F= -.41604857E+02 E0= -.41604156E+02  d E =-.153238E+00  mag=     0.0000
 curvature:  -1.23 expect dE=-0.327E-01 dE for cont linesearch -0.195E-04
 trial: gam= 0.23036 g(F)=  0.121E-01 g(S)=  0.145E-01 ort = 0.147E-02 (trialstep = 0.117E+01)
 search vector abs. value=  0.345E-01
 bond charge predicted
       N       E                     dE             d eps       ncg     rms          rms(c)
DAV:   1    -0.417258534431E+02   -0.12100E+00   -0.10040E+01 11496   0.874E+01    0.731E+00
DAV:   2    -0.432291670530E+02   -0.15033E+01   -0.14993E+01 11288   0.352E+01    0.128E+01
DAV:   3    -0.417557131341E+02    0.14735E+01   -0.61605E+00 11288   0.263E+01    0.489E+00
DAV:   4    -0.416465490979E+02    0.10916E+00   -0.82684E-01 11704   0.112E+01    0.159E+00
DAV:   5    -0.416273353496E+02    0.19214E-01   -0.59518E-02 11400   0.232E+00    0.563E-01
DAV:   6    -0.416246263006E+02    0.27090E-02   -0.82155E-03 13968   0.112E+00    0.284E-01
DAV:   7    -0.416242992892E+02    0.32701E-03   -0.36235E-03 11352   0.116E+00    0.146E-01
DAV:   8    -0.416241514233E+02    0.14787E-03   -0.88993E-04 11192   0.409E-01    0.585E-02
DAV:   9    -0.416241343931E+02    0.17030E-04   -0.95299E-05 11544   0.110E-01    0.127E-02
DAV:  10    -0.416241356836E+02   -0.12905E-05   -0.12053E-05 12560   0.340E-02    0.874E-03
DAV:  11    -0.416241355368E+02    0.14680E-06   -0.31779E-06 10640   0.197E-02    0.114E-03
DAV:  12    -0.416241356433E+02   -0.10649E-06   -0.16294E-07 11080   0.461E-03    0.372E-04
DAV:  13    -0.416241356571E+02   -0.13821E-07   -0.93646E-09  5856   0.112E-03    0.203E-04
DAV:  14    -0.416241356687E+02   -0.11576E-07   -0.22259E-09  5584   0.498E-04    0.394E-05
DAV:  15    -0.416241356698E+02   -0.11732E-08   -0.68217E-10  5504   0.221E-04
   7 F= -.41624136E+02 E0= -.41623415E+02  d E =-.192782E-01  mag=     0.0000
 trial-energy change:   -0.019278  1 .order   -0.019389   -0.031533   -0.007244
 step:   1.5296(harm=  1.5167)  dis= 0.02153  next Energy=   -41.625253 (dE=-0.204E-01)
 bond charge predicted
       N       E                     dE             d eps       ncg     rms          rms(c)
DAV:   1    -0.416359242530E+02   -0.11789E-01   -0.94512E-01 11752   0.273E+01    0.230E+00
DAV:   2    -0.417888629100E+02   -0.15294E+00   -0.13777E+00 11272   0.111E+01    0.403E+00
DAV:   3    -0.416352076532E+02    0.15366E+00   -0.59918E-01 11192   0.885E+00    0.136E+00
DAV:   4    -0.416271869722E+02    0.80207E-02   -0.66728E-02 11304   0.377E+00    0.455E-01
DAV:   5    -0.416255788524E+02    0.16081E-02   -0.47607E-03 11408   0.696E-01    0.180E-01
DAV:   6    -0.416257759713E+02   -0.19712E-03   -0.22895E-03 12752   0.876E-01    0.276E-01
DAV:   7    -0.416252760447E+02    0.49993E-03   -0.14490E-03 11504   0.796E-01    0.289E-02
DAV:   8    -0.416252773117E+02   -0.12670E-05   -0.16715E-04 11120   0.101E-01    0.225E-02
DAV:   9    -0.416252750547E+02    0.22570E-05   -0.13999E-05 11752   0.521E-02    0.484E-03
DAV:  10    -0.416252754543E+02   -0.39962E-06   -0.17047E-06 11664   0.154E-02    0.221E-03
DAV:  11    -0.416252755812E+02   -0.12690E-06   -0.18535E-07 11056   0.607E-03    0.375E-04
DAV:  12    -0.416252756151E+02   -0.33922E-07   -0.14105E-08  5744   0.170E-03    0.220E-04
DAV:  13    -0.416252756282E+02   -0.13071E-07   -0.41491E-09  5552   0.738E-04    0.401E-05
DAV:  14    -0.416252756326E+02   -0.43729E-08   -0.13224E-09  5416   0.232E-04
   8 F= -.41625276E+02 E0= -.41624541E+02  d E =-.204182E-01  mag=    -0.0000
 curvature:  -0.97 expect dE=-0.141E-01 dE for cont linesearch -0.109E-06
 trial: gam= 0.54413 g(F)=  0.273E-02 g(S)=  0.119E-01 ort = 0.622E-04 (trialstep = 0.124E+01)
 search vector abs. value=  0.249E-01
 bond charge predicted
       N       E                     dE             d eps       ncg     rms          rms(c)
DAV:   1    -0.418082327984E+02   -0.18296E+00   -0.77004E+00 11744   0.734E+01    0.702E+00
DAV:   2    -0.430331105101E+02   -0.12249E+01   -0.10562E+01 12080   0.327E+01    0.109E+01
DAV:   3    -0.416561478258E+02    0.13770E+01   -0.42097E+00 11184   0.224E+01    0.189E+00
DAV:   4    -0.416549858317E+02    0.11620E-02   -0.23636E-01 12520   0.691E+00    0.152E+00
DAV:   5    -0.416337707956E+02    0.21215E-01   -0.45121E-02 12624   0.316E+00    0.380E-01
DAV:   6    -0.416329191011E+02    0.85169E-03   -0.91369E-03 11080   0.812E-01    0.143E-01
DAV:   7    -0.416329676122E+02   -0.48511E-04   -0.16522E-03 11424   0.767E-01    0.177E-01
DAV:   8    -0.416327486540E+02    0.21896E-03   -0.80051E-04 11368   0.479E-01    0.601E-02
DAV:   9    -0.416327298596E+02    0.18794E-04   -0.11838E-04 11720   0.916E-02    0.950E-03
DAV:  10    -0.416327282165E+02    0.16431E-05   -0.89906E-06 10648   0.256E-02    0.539E-03
DAV:  11    -0.416327275159E+02    0.70066E-06   -0.14687E-06 11608   0.128E-02    0.168E-03
DAV:  12    -0.416327274220E+02    0.93849E-07   -0.13145E-07 12368   0.516E-03    0.415E-04
DAV:  13    -0.416327273643E+02    0.57724E-07   -0.24759E-08  7536   0.175E-03    0.190E-04
DAV:  14    -0.416327273634E+02    0.92587E-09   -0.23487E-09  5560   0.460E-04
   9 F= -.41632727E+02 E0= -.41632007E+02  d E =-.745173E-02  mag=     0.0000
 trial-energy change:   -0.007452  1 .order   -0.007401   -0.018132    0.003331
 step:   1.0503(harm=  1.0480)  dis= 0.01085  next Energy=   -41.632983 (dE=-0.771E-02)
 bond charge predicted
       N       E                     dE             d eps       ncg     rms          rms(c)
DAV:   1    -0.416369080563E+02   -0.41807E-02   -0.18424E-01 11592   0.112E+01    0.106E+00
DAV:   2    -0.416654414212E+02   -0.28533E-01   -0.26327E-01 11336   0.500E+00    0.177E+00
DAV:   3    -0.416341860215E+02    0.31255E-01   -0.11142E-01 11208   0.359E+00    0.455E-01
DAV:   4    -0.416335072776E+02    0.67874E-03   -0.92375E-03 11336   0.162E+00    0.230E-01
DAV:   5    -0.416330058727E+02    0.50140E-03   -0.10922E-03 11504   0.435E-01    0.531E-02
DAV:   6    -0.416330020081E+02    0.38646E-05   -0.21304E-04 13528   0.194E-01    0.550E-02
DAV:   7    -0.416329853982E+02    0.16610E-04   -0.90076E-05 11376   0.182E-01    0.144E-02
DAV:   8    -0.416329845170E+02    0.88115E-06   -0.16846E-05 11256   0.433E-02    0.106E-02
DAV:   9    -0.416329842668E+02    0.25023E-06   -0.28708E-06 11552   0.175E-02    0.206E-03
DAV:  10    -0.416329844113E+02   -0.14450E-06   -0.28570E-07 10756   0.659E-03    0.790E-04
DAV:  11    -0.416329844654E+02   -0.54160E-07   -0.32833E-08  8256   0.246E-03    0.209E-04
DAV:  12    -0.416329844877E+02   -0.22248E-07   -0.35517E-09  5464   0.626E-04    0.348E-05
DAV:  13    -0.416329844904E+02   -0.27194E-08   -0.76755E-10  5384   0.268E-04
  10 F= -.41632984E+02 E0= -.41632258E+02  d E =-.770886E-02  mag=     0.0000
 curvature:  -0.89 expect dE=-0.177E-02 dE for cont linesearch -0.735E-08
 trial: gam= 0.14694 g(F)=  0.129E-02 g(S)=  0.693E-03 ort =-0.143E-04 (trialstep = 0.120E+01)
 search vector abs. value=  0.252E-02
 bond charge predicted
       N       E                     dE             d eps       ncg     rms          rms(c)
DAV:   1    -0.416099511848E+02    0.23033E-01   -0.60522E-01 12408   0.243E+01    0.808E-01
DAV:   2    -0.416446432796E+02   -0.34692E-01   -0.37015E-01 11192   0.476E+00    0.952E-01
DAV:   3    -0.416367498728E+02    0.78934E-02   -0.47575E-02 11304   0.251E+00    0.440E-01
DAV:   4    -0.416363645885E+02    0.38528E-03   -0.82053E-03 11520   0.168E+00    0.406E-01
DAV:   5    -0.416349662263E+02    0.13984E-02   -0.33171E-03 11864   0.111E+00    0.962E-02
DAV:   6    -0.416349456716E+02    0.20555E-04   -0.86139E-04 13872   0.361E-01    0.102E-01
DAV:   7    -0.416348852252E+02    0.60446E-04   -0.27376E-04 11336   0.312E-01    0.244E-02
DAV:   8    -0.416348834093E+02    0.18159E-05   -0.76844E-05 11496   0.882E-02    0.196E-02
DAV:   9    -0.416348809538E+02    0.24556E-05   -0.11111E-05 11224   0.421E-02    0.443E-03
DAV:  10    -0.416348811965E+02   -0.24274E-06   -0.95130E-07 12544   0.123E-02    0.142E-03
DAV:  11    -0.416348812638E+02   -0.67228E-07   -0.97326E-08 10928   0.429E-03    0.395E-04
DAV:  12    -0.416348812790E+02   -0.15239E-07   -0.87648E-09  5624   0.126E-03    0.741E-05
DAV:  13    -0.416348812857E+02   -0.67121E-08   -0.18543E-09  5448   0.317E-04
  11 F= -.41634881E+02 E0= -.41634184E+02  d E =-.189680E-02  mag=     0.0000
 trial-energy change:   -0.001897  1 .order   -0.001897   -0.002381   -0.001412
 step:   2.9560(harm=  2.9560)  dis= 0.00916  next Energy=   -41.635911 (dE=-0.293E-02)
 bond charge predicted
       N       E                     dE             d eps       ncg     rms          rms(c)
DAV:   1    -0.415824185904E+02    0.52463E-01   -0.12841E+00 12320   0.354E+01    0.117E+00
DAV:   2    -0.416557677799E+02   -0.73349E-01   -0.78586E-01 11192   0.691E+00    0.135E+00
DAV:   3    -0.416398193052E+02    0.15948E-01   -0.97464E-02 11360   0.355E+00    0.622E-01
DAV:   4    -0.416389944369E+02    0.82487E-03   -0.16304E-02 11616   0.237E+00    0.590E-01
DAV:   5    -0.416361273701E+02    0.28671E-02   -0.72972E-03 11656   0.171E+00    0.148E-01
DAV:   6    -0.416360573322E+02    0.70038E-04   -0.18760E-03 13904   0.533E-01    0.144E-01
DAV:   7    -0.416359374939E+02    0.11984E-03   -0.56048E-04 11312   0.448E-01    0.363E-02
DAV:   8    -0.416359333887E+02    0.41053E-05   -0.16956E-04 11456   0.132E-01    0.293E-02
DAV:   9    -0.416359277808E+02    0.56078E-05   -0.25203E-05 11200   0.640E-02    0.652E-03
DAV:  10    -0.416359282409E+02   -0.46004E-06   -0.21562E-06 12448   0.192E-02    0.217E-03
DAV:  11    -0.416359283440E+02   -0.10312E-06   -0.21945E-07 11264   0.655E-03    0.559E-04
DAV:  12    -0.416359283672E+02   -0.23232E-07   -0.19797E-08  6192   0.185E-03    0.106E-04
DAV:  13    -0.416359283782E+02   -0.11001E-07   -0.35512E-09  5552   0.457E-04    0.393E-05
DAV:  14    -0.416359283816E+02   -0.33378E-08   -0.89244E-10  5384   0.257E-04
  12 F= -.41635928E+02 E0= -.41635304E+02  d E =-.294389E-02  mag=    -0.0000
 curvature:  -1.88 expect dE=-0.294E-02 dE for cont linesearch -0.287E-06
 trial: gam= 0.79243 g(F)=  0.824E-03 g(S)=  0.744E-03 ort = 0.196E-04 (trialstep = 0.123E+01)
 search vector abs. value=  0.318E-02
 bond charge predicted
       N       E                     dE             d eps       ncg     rms          rms(c)
DAV:   1    -0.416232515203E+02    0.12677E-01   -0.10575E+00 11696   0.312E+01    0.202E+00
DAV:   2    -0.417497039563E+02   -0.12645E+00   -0.11419E+00 11312   0.100E+01    0.323E+00
DAV:   3    -0.416428930780E+02    0.10681E+00   -0.40565E-01 11192   0.762E+00    0.997E-01
DAV:   4    -0.416393007527E+02    0.35923E-02   -0.42139E-02 11584   0.324E+00    0.451E-01
DAV:   5    -0.416373862814E+02    0.19145E-02   -0.35172E-03 12152   0.790E-01    0.170E-01
DAV:   6    -0.416373275627E+02    0.58719E-04   -0.17643E-03 13112   0.657E-01    0.195E-01
DAV:   7    -0.416370950416E+02    0.23252E-03   -0.86335E-04 11408   0.586E-01    0.320E-02
DAV:   8    -0.416370891339E+02    0.59076E-05   -0.15142E-04 11232   0.112E-01    0.271E-02
DAV:   9    -0.416370841135E+02    0.50205E-05   -0.15850E-05 11584   0.465E-02    0.424E-03
DAV:  10    -0.416370837769E+02    0.33663E-06   -0.16498E-06 10888   0.134E-02    0.169E-03
DAV:  11    -0.416370836775E+02    0.99375E-07   -0.13500E-07 11440   0.537E-03    0.470E-04
DAV:  12    -0.416370836322E+02    0.45311E-07   -0.13372E-08  5760   0.191E-03    0.181E-04
DAV:  13    -0.416370836182E+02    0.13981E-07   -0.43582E-09  5488   0.789E-04    0.662E-05
DAV:  14    -0.416370836146E+02    0.36343E-08   -0.13141E-09  5408   0.297E-04
  13 F= -.41637084E+02 E0= -.41636493E+02  d E =-.115523E-02  mag=     0.0000
 trial-energy change:   -0.001155  1 .order   -0.001149   -0.001946   -0.000351
 step:   1.4915(harm=  1.4995)  dis= 0.00575  next Energy=   -41.637121 (dE=-0.119E-02)
 bond charge predicted
       N       E                     dE             d eps       ncg     rms          rms(c)
DAV:   1    -0.416364439088E+02    0.63971E-03   -0.48326E-02 11600   0.666E+00    0.426E-01
DAV:   2    -0.416420286908E+02   -0.55848E-02   -0.51977E-02 11312   0.212E+00    0.678E-01
DAV:   3    -0.416373815849E+02    0.46471E-02   -0.18012E-02 11192   0.161E+00    0.217E-01
DAV:   4    -0.416372054143E+02    0.17617E-03   -0.18817E-03 11440   0.720E-01    0.981E-02
DAV:   5    -0.416371134180E+02    0.91996E-04   -0.16191E-04 11696   0.163E-01    0.356E-02
DAV:   6    -0.416371001673E+02    0.13251E-04   -0.55748E-05 13096   0.767E-02    0.183E-02
DAV:   7    -0.416370988209E+02    0.13464E-05   -0.15951E-05 11376   0.745E-02    0.903E-03
DAV:   8    -0.416370980651E+02    0.75581E-06   -0.60847E-06 11288   0.317E-02    0.618E-03
DAV:   9    -0.416370976349E+02    0.43014E-06   -0.80338E-07 11544   0.999E-03    0.839E-04
DAV:  10    -0.416370975634E+02    0.71526E-07   -0.61989E-08  9848   0.243E-03    0.446E-04
DAV:  11    -0.416370975313E+02    0.32143E-07   -0.74418E-09  5472   0.101E-03    0.780E-05
DAV:  12    -0.416370975221E+02    0.91550E-08   -0.15091E-09  5304   0.324E-04
  14 F= -.41637098E+02 E0= -.41636515E+02  d E =-.116914E-02  mag=    -0.0000
 curvature:  -1.50 expect dE=-0.141E-02 dE for cont linesearch -0.811E-08
 trial: gam= 0.60381 g(F)=  0.355E-03 g(S)=  0.581E-03 ort = 0.414E-05 (trialstep = 0.128E+01)
 search vector abs. value=  0.210E-02
 bond charge predicted
       N       E                     dE             d eps       ncg     rms          rms(c)
DAV:   1    -0.416228369508E+02    0.14261E-01   -0.64135E-01 11824   0.249E+01    0.136E+00
DAV:   2    -0.416864245961E+02   -0.63588E-01   -0.60862E-01 11344   0.692E+00    0.215E+00
DAV:   3    -0.416399773593E+02    0.46447E-01   -0.17999E-01 11184   0.461E+00    0.579E-01
DAV:   4    -0.416388144301E+02    0.11629E-02   -0.12799E-02 12728   0.198E+00    0.344E-01
DAV:   5    -0.416379055997E+02    0.90883E-03   -0.17068E-03 11584   0.625E-01    0.140E-01
DAV:   6    -0.416377208707E+02    0.18473E-03   -0.68217E-04 11600   0.248E-01    0.342E-02
DAV:   7    -0.416377232562E+02   -0.23855E-05   -0.10122E-04 12744   0.165E-01    0.362E-02
DAV:   8    -0.416377171548E+02    0.61014E-05   -0.57256E-05 11352   0.124E-01    0.193E-02
DAV:   9    -0.416377146156E+02    0.25392E-05   -0.83809E-06 11424   0.332E-02    0.395E-03
DAV:  10    -0.416377147986E+02   -0.18302E-06   -0.94586E-07 12392   0.847E-03    0.164E-03
DAV:  11    -0.416377148859E+02   -0.87302E-07   -0.11521E-07 10016   0.421E-03    0.251E-04
DAV:  12    -0.416377149046E+02   -0.18708E-07   -0.84265E-09  5664   0.110E-03    0.817E-05
DAV:  13    -0.416377149109E+02   -0.62937E-08   -0.12798E-09  5416   0.338E-04
  15 F= -.41637715E+02 E0= -.41637120E+02  d E =-.617389E-03  mag=    -0.0000
 trial-energy change:   -0.000617  1 .order   -0.000618   -0.001203   -0.000032
 step:   1.3169(harm=  1.3169)  dis= 0.00416  next Energy=   -41.637716 (dE=-0.618E-03)
 bond charge predicted
       N       E                     dE             d eps       ncg     rms          rms(c)
DAV:   1    -0.416377044613E+02    0.10443E-04   -0.48563E-04 11848   0.684E-01    0.376E-02
DAV:   2    -0.416377512152E+02   -0.46754E-04   -0.45636E-04 11352   0.191E-01    0.586E-02
DAV:   3    -0.416377165103E+02    0.34705E-04   -0.13488E-04 11184   0.127E-01    0.149E-02
DAV:   4    -0.416377158829E+02    0.62742E-06   -0.90221E-06 12864   0.501E-02    0.937E-03
DAV:   5    -0.416377153278E+02    0.55503E-06   -0.12187E-06 11536   0.174E-02    0.379E-03
DAV:   6    -0.416377154123E+02   -0.84478E-07   -0.50064E-07 12040   0.734E-03    0.149E-03
DAV:   7    -0.416377154134E+02   -0.11041E-08   -0.11437E-07 10648   0.596E-03    0.757E-04
DAV:   8    -0.416377154372E+02   -0.23805E-07   -0.43013E-08  7864   0.257E-03    0.533E-04
DAV:   9    -0.416377154447E+02   -0.74524E-08   -0.60666E-09  5104   0.101E-03
  16 F= -.41637715E+02 E0= -.41637120E+02  d E =-.617923E-03  mag=    -0.0000
 curvature:  -1.47 expect dE=-0.251E-03 dE for cont linesearch -0.721E-08
 trial: gam= 0.16788 g(F)=  0.119E-03 g(S)=  0.517E-04 ort = 0.321E-05 (trialstep = 0.129E+01)
 search vector abs. value=  0.231E-03
 bond charge predicted
       N       E                     dE             d eps       ncg     rms          rms(c)
DAV:   1    -0.416364022000E+02    0.13132E-02   -0.35008E-02 11904   0.608E+00    0.214E-01
DAV:   2    -0.416387887269E+02   -0.23865E-02   -0.24128E-02 11328   0.125E+00    0.280E-01
DAV:   3    -0.416380041460E+02    0.78458E-03   -0.37611E-03 11216   0.698E-01    0.105E-01
DAV:   4    -0.416379754386E+02    0.28707E-04   -0.43996E-04 11512   0.376E-01    0.820E-02
DAV:   5    -0.416379175171E+02    0.57922E-04   -0.10974E-04 11384   0.198E-01    0.259E-02
DAV:   6    -0.416379092477E+02    0.82694E-05   -0.37782E-05 11296   0.526E-02    0.670E-03
DAV:   7    -0.416379091000E+02    0.14764E-06   -0.65646E-06 11584   0.293E-02    0.683E-03
DAV:   8    -0.416379090270E+02    0.73000E-07   -0.15217E-06 11520   0.223E-02    0.539E-03
DAV:   9    -0.416379087893E+02    0.23779E-06   -0.62147E-07 11544   0.120E-02    0.102E-03
DAV:  10    -0.416379087541E+02    0.35199E-07   -0.98767E-08  9720   0.287E-03    0.480E-04
DAV:  11    -0.416379087408E+02    0.13219E-07   -0.10608E-08  5400   0.122E-03    0.736E-05
DAV:  12    -0.416379087352E+02    0.55898E-08   -0.19681E-09  5320   0.371E-04
  17 F= -.41637909E+02 E0= -.41637298E+02  d E =-.193291E-03  mag=     0.0000
 trial-energy change:   -0.000193  1 .order   -0.000169   -0.000221   -0.000118
 step:   1.7933(harm=  2.7755)  dis= 0.00137  next Energy=   -41.637933 (dE=-0.218E-03)
 bond charge predicted
       N       E                     dE             d eps       ncg     rms          rms(c)
DAV:   1    -0.416377156317E+02    0.19311E-03   -0.53652E-03 11872   0.238E+00    0.838E-02
DAV:   2    -0.416380834167E+02   -0.36779E-03   -0.37022E-03 11336   0.489E-01    0.110E-01
DAV:   3    -0.416379628402E+02    0.12058E-03   -0.57536E-04 11216   0.273E-01    0.412E-02
DAV:   4    -0.416379582469E+02    0.45933E-05   -0.66931E-05 11504   0.150E-01    0.321E-02
DAV:   5    -0.416379492343E+02    0.90125E-05   -0.16917E-05 11368   0.772E-02    0.102E-02
DAV:   6    -0.416379476696E+02    0.15647E-05   -0.58009E-06 11280   0.207E-02    0.262E-03
DAV:   7    -0.416379476246E+02    0.44991E-07   -0.10252E-06 11536   0.113E-02    0.261E-03
DAV:   8    -0.416379476117E+02    0.12882E-07   -0.22385E-07 11496   0.852E-03    0.216E-03
DAV:   9    -0.416379475656E+02    0.46168E-07   -0.98788E-08  9408   0.491E-03    0.404E-04
DAV:  10    -0.416379475507E+02    0.14876E-07   -0.14279E-08  5408   0.118E-03    0.192E-04
DAV:  11    -0.416379475469E+02    0.37817E-08   -0.33671E-09  5192   0.664E-04
  18 F= -.41637948E+02 E0= -.41637331E+02  d E =-.232102E-03  mag=     0.0000
 curvature:  -1.05 expect dE=-0.549E-04 dE for cont linesearch -0.167E-04
 ZBRENT: increasing intervall
 opt :   2.8024  next Energy=   -41.637977 (dE=-0.262E-03)
 bond charge predicted
       N       E                     dE             d eps       ncg     rms          rms(c)
DAV:   1    -0.416370529041E+02    0.89465E-03   -0.21467E-02 11904   0.476E+00    0.168E-01
DAV:   2    -0.416385192147E+02   -0.14663E-02   -0.14813E-02 11336   0.977E-01    0.220E-01
DAV:   3    -0.416380371507E+02    0.48206E-03   -0.23113E-03 11216   0.548E-01    0.827E-02
DAV:   4    -0.416380190609E+02    0.18090E-04   -0.27160E-04 11504   0.297E-01    0.641E-02
DAV:   5    -0.416379834457E+02    0.35615E-04   -0.66971E-05 11352   0.154E-01    0.203E-02
DAV:   6    -0.416379781708E+02    0.52749E-05   -0.23195E-05 11272   0.411E-02    0.524E-03
DAV:   7    -0.416379780213E+02    0.14947E-06   -0.40510E-06 11480   0.212E-02    0.445E-03
DAV:   8    -0.416379779780E+02    0.43292E-07   -0.76114E-07 12464   0.143E-02    0.399E-03
DAV:   9    -0.416379778645E+02    0.11348E-06   -0.32702E-07 11432   0.107E-02    0.793E-04
DAV:  10    -0.416379778410E+02    0.23549E-07   -0.48245E-08  8184   0.197E-03    0.340E-04
DAV:  11    -0.416379778264E+02    0.14561E-07   -0.52749E-09  5344   0.960E-04    0.571E-05
DAV:  12    -0.416379778233E+02    0.31341E-08   -0.11128E-09  5248   0.312E-04
  19 F= -.41637978E+02 E0= -.41637350E+02  d E =-.262379E-03  mag=    -0.0000
 curvature:  -1.86 expect dE=-0.144E-03 dE for cont linesearch -0.363E-07
 trial: gam= 0.46927 g(F)=  0.346E-04 g(S)=  0.428E-04 ort =-0.212E-05 (trialstep = 0.159E+01)
 search vector abs. value=  0.126E-03
 bond charge predicted
       N       E                     dE             d eps       ncg     rms          rms(c)
DAV:   1    -0.416422434065E+02   -0.42656E-02   -0.63106E-02 11024   0.550E+00    0.788E-01
DAV:   2    -0.416573671045E+02   -0.15124E-01   -0.13500E-01 11320   0.363E+00    0.137E+00
DAV:   3    -0.416386673573E+02    0.18700E-01   -0.66278E-02 11192   0.290E+00    0.369E-01
DAV:   4    -0.416381344822E+02    0.53288E-03   -0.57115E-03 11304   0.123E+00    0.125E-01
DAV:   5    -0.416380057032E+02    0.12878E-03   -0.40366E-04 11424   0.209E-01    0.367E-02
DAV:   6    -0.416380307313E+02   -0.25028E-04   -0.15842E-04 12200   0.247E-01    0.712E-02
DAV:   7    -0.416379965601E+02    0.34171E-04   -0.89184E-05 11592   0.200E-01    0.646E-03
DAV:   8    -0.416379971866E+02   -0.62647E-06   -0.83860E-06 10824   0.199E-02    0.476E-03
DAV:   9    -0.416379972514E+02   -0.64776E-07   -0.78850E-07 12368   0.145E-02    0.116E-03
DAV:  10    -0.416379973870E+02   -0.13563E-06   -0.92922E-08  9984   0.377E-03    0.480E-04
DAV:  11    -0.416379974065E+02   -0.19463E-07   -0.10453E-08  5568   0.123E-03    0.977E-05
DAV:  12    -0.416379974161E+02   -0.96752E-08   -0.18372E-09  5400   0.460E-04
  20 F= -.41637997E+02 E0= -.41637370E+02  d E =-.195928E-04  mag=    -0.0000
 trial-energy change:   -0.000020  1 .order   -0.000021   -0.000122    0.000081
 step:   0.9464(harm=  0.9578)  dis= 0.00101  next Energy=   -41.638014 (dE=-0.360E-04)
 bond charge predicted
       N       E                     dE             d eps       ncg     rms          rms(c)
DAV:   1    -0.416387107186E+02   -0.71331E-03   -0.10361E-02 11024   0.223E+00    0.321E-01
DAV:   2    -0.416412190620E+02   -0.25083E-02   -0.21932E-02 11320   0.148E+00    0.552E-01
DAV:   3    -0.416381173370E+02    0.31017E-02   -0.10836E-02 11192   0.119E+00    0.143E-01
DAV:   4    -0.416380388915E+02    0.78446E-04   -0.90810E-04 11608   0.480E-01    0.489E-02
DAV:   5    -0.416380164645E+02    0.22427E-04   -0.60655E-05 11400   0.805E-02    0.134E-02
DAV:   6    -0.416380145960E+02    0.18685E-05   -0.60256E-06 13184   0.280E-02    0.745E-03
DAV:   7    -0.416380143288E+02    0.26721E-06   -0.24584E-06 11464   0.314E-02    0.427E-03
DAV:   8    -0.416380139603E+02    0.36849E-06   -0.61911E-07 11336   0.116E-02    0.150E-03
DAV:   9    -0.416380138676E+02    0.92785E-07   -0.85098E-08 10728   0.270E-03    0.371E-04
DAV:  10    -0.416380138319E+02    0.35669E-07   -0.72423E-09  5536   0.935E-04    0.202E-04
DAV:  11    -0.416380138158E+02    0.16082E-07   -0.22175E-09  5336   0.479E-04    0.561E-05
DAV:  12    -0.416380138112E+02    0.45566E-08   -0.53051E-10  5224   0.228E-04
  21 F= -.41638014E+02 E0= -.41637386E+02  d E =-.359879E-04  mag=    -0.0000
 curvature:  -0.79 expect dE=-0.153E-04 dE for cont linesearch -0.900E-08
 trial: gam= 0.22342 g(F)=  0.117E-04 g(S)=  0.767E-05 ort = 0.120E-05 (trialstep = 0.146E+01)
 search vector abs. value=  0.262E-04
 bond charge predicted
       N       E                     dE             d eps       ncg     rms          rms(c)
DAV:   1    -0.416378976783E+02    0.11614E-03   -0.88052E-03 12032   0.292E+00    0.182E-01
DAV:   2    -0.416389593232E+02   -0.10616E-02   -0.96862E-03 11264   0.909E-01    0.294E-01
DAV:   3    -0.416380682297E+02    0.89109E-03   -0.33537E-03 11184   0.652E-01    0.803E-02
DAV:   4    -0.416380449326E+02    0.23297E-04   -0.25297E-04 11704   0.260E-01    0.384E-02
DAV:   5    -0.416380342783E+02    0.10654E-04   -0.20050E-05 11696   0.557E-02    0.202E-02
DAV:   6    -0.416380292494E+02    0.50289E-05   -0.12778E-05 11432   0.353E-02    0.442E-03
DAV:   7    -0.416380291141E+02    0.13524E-06   -0.19267E-06 11456   0.212E-02    0.526E-03
DAV:   8    -0.416380289305E+02    0.18368E-06   -0.78439E-07 11408   0.176E-02    0.181E-03
DAV:   9    -0.416380288528E+02    0.77651E-07   -0.88891E-08 10752   0.312E-03    0.391E-04
DAV:  10    -0.416380288275E+02    0.25329E-07   -0.83091E-09  5344   0.895E-04    0.135E-04
DAV:  11    -0.416380288150E+02    0.12471E-07   -0.21913E-09  5216   0.461E-04    0.294E-05
DAV:  12    -0.416380288138E+02    0.12278E-08   -0.38714E-10  5120   0.159E-04
  22 F= -.41638029E+02 E0= -.41637408E+02  d E =-.150025E-04  mag=    -0.0000
 trial-energy change:   -0.000015  1 .order   -0.000015   -0.000029   -0.000002
 step:   1.5541(harm=  1.5506)  dis= 0.00085  next Energy=   -41.638029 (dE=-0.151E-04)
 bond charge predicted
       N       E                     dE             d eps       ncg     rms          rms(c)
DAV:   1    -0.416380282761E+02    0.53887E-06   -0.34637E-05 12032   0.183E-01    0.114E-02
DAV:   2    -0.416380328946E+02   -0.46185E-05   -0.38108E-05 11256   0.569E-02    0.184E-02
DAV:   3    -0.416380291472E+02    0.37475E-05   -0.13161E-05 11184   0.409E-02    0.505E-03
DAV:   4    -0.416380290383E+02    0.10885E-06   -0.99678E-07 11672   0.164E-02    0.241E-03
DAV:   5    -0.416380289616E+02    0.76694E-07   -0.78672E-08 10568   0.349E-03    0.127E-03
DAV:   6    -0.416380288697E+02    0.91912E-07   -0.50300E-08  9008   0.233E-03    0.368E-04
DAV:   7    -0.416380288653E+02    0.43747E-08   -0.96143E-09  5096   0.191E-03
  23 F= -.41638029E+02 E0= -.41637408E+02  d E =-.150541E-04  mag=     0.0000
 curvature:  -1.03 expect dE=-0.571E-05 dE for cont linesearch -0.212E-07
 trial: gam= 0.37612 g(F)=  0.352E-05 g(S)=  0.201E-05 ort =-0.734E-06 (trialstep = 0.148E+01)
 search vector abs. value=  0.868E-05
 bond charge predicted
       N       E                     dE             d eps       ncg     rms          rms(c)
DAV:   1    -0.416379341604E+02    0.94709E-04   -0.39621E-03 11592   0.198E+00    0.107E-01
DAV:   2    -0.416383324463E+02   -0.39829E-03   -0.37774E-03 11320   0.535E-01    0.167E-01
DAV:   3    -0.416380403561E+02    0.29209E-03   -0.10998E-03 11184   0.350E-01    0.391E-02
DAV:   4    -0.416380359437E+02    0.44124E-05   -0.56328E-05 12464   0.116E-01    0.233E-02
DAV:   5    -0.416380328775E+02    0.30661E-05   -0.58379E-06 11472   0.350E-02    0.136E-02
DAV:   6    -0.416380320807E+02    0.79688E-06   -0.56534E-06 11400   0.281E-02    0.596E-03
DAV:   7    -0.416380319712E+02    0.10942E-06   -0.13105E-06 11400   0.210E-02    0.223E-03
DAV:   8    -0.416380320464E+02   -0.75117E-07   -0.43278E-07 11344   0.754E-03    0.194E-03
DAV:   9    -0.416380320436E+02    0.28031E-08   -0.79257E-08  9640   0.369E-03
  24 F= -.41638032E+02 E0= -.41637414E+02  d E =-.317821E-05  mag=    -0.0000
 trial-energy change:   -0.000003  1 .order   -0.000004   -0.000008   -0.000000
 step:   1.5593(harm=  1.5593)  dis= 0.00039  next Energy=   -41.638033 (dE=-0.409E-05)
 bond charge predicted
       N       E                     dE             d eps       ncg     rms          rms(c)
DAV:   1    -0.416380317657E+02    0.28069E-06   -0.10935E-05 11536   0.105E-01    0.552E-03
DAV:   2    -0.416380326321E+02   -0.86643E-06   -0.10309E-05 11344   0.278E-02    0.855E-03
DAV:   3    -0.416380319858E+02    0.64626E-06   -0.29184E-06 11176   0.179E-02    0.199E-03
DAV:   4    -0.416380319822E+02    0.36616E-08   -0.14496E-07 12144   0.588E-03    0.122E-03
DAV:   5    -0.416380319847E+02   -0.25702E-08   -0.13691E-08  5176   0.189E-03
  25 F= -.41638032E+02 E0= -.41637414E+02  d E =-.311940E-05  mag=     0.0000
 curvature:  -1.29 expect dE=-0.327E-05 dE for cont linesearch -0.525E-07
 trial: gam= 0.19745 g(F)=  0.216E-05 g(S)=  0.373E-06 ort = 0.595E-06 (trialstep = 0.150E+01)
 search vector abs. value=  0.311E-05
 reached required accuracy - stopping structural energy minimisation
 writing wavefunctions
