       N       E                     dE             d eps       ncg     rms          rms(c)
DAV:   1    -0.661989231224E+02   -0.66199E+02   -0.11022E+00 16816   0.836E+00    0.382E-01
DAV:   2    -0.662052626017E+02   -0.63395E-02   -0.28119E-02 19432   0.213E+00    0.108E+00
DAV:   3    -0.661996226528E+02    0.56399E-02   -0.20158E-02 18832   0.204E+00    0.424E-01
DAV:   4    -0.661977480338E+02    0.18746E-02   -0.30792E-03 19456   0.633E-01    0.657E-02
DAV:   5    -0.661980172368E+02   -0.26920E-03   -0.55940E-04 19624   0.334E-01    0.124E-01
DAV:   6    -0.661977607957E+02    0.25644E-03   -0.23015E-04 19064   0.263E-01    0.307E-02
DAV:   7    -0.661978268854E+02   -0.66090E-04   -0.43490E-05 22176   0.948E-02    0.277E-02
DAV:   8    -0.661978082947E+02    0.18591E-04   -0.13440E-05 19208   0.563E-02    0.525E-03
DAV:   9    -0.661978114870E+02   -0.31923E-05   -0.28744E-06 21196   0.179E-02    0.628E-03
DAV:  10    -0.661978091372E+02    0.23498E-05   -0.85264E-07 18848   0.167E-02    0.274E-03
DAV:  11    -0.661978079483E+02    0.11888E-05   -0.19720E-07 20356   0.553E-03    0.433E-04
DAV:  12    -0.661978081798E+02   -0.23150E-06   -0.31932E-08 12544   0.137E-03    0.251E-04
DAV:  13    -0.661978081970E+02   -0.17139E-07   -0.27348E-09  8816   0.563E-04    0.637E-05
DAV:  14    -0.661978082088E+02   -0.11827E-07   -0.68606E-10  8704   0.180E-04    0.326E-05
DAV:  15    -0.661978082038E+02    0.49986E-08   -0.16345E-10  8632   0.109E-04
   1 F= -.66197808E+02 E0= -.66197808E+02  d E =0.000000E+00  mag=     0.0000
