 running on   24 total cores
 distrk:  each k-point on   24 cores,    1 groups
 distr:  one band on    6 cores,    4 groups
 using from now: INCAR     
 vasp.5.4.4.18Apr17-6-g9f103f2a35 (build Jan 03 2018 06:08:52) complex          
  
 POSCAR found :  2 types and      12 ions
 scaLAPACK will be used
 WARNING: for PREC=h ENMAX is automatically increase by 25 %
        this was not the case for versions prior to vasp.4.4
 WARNING: for PREC=h ENMAX is automatically increase by 25 %
        this was not the case for versions prior to vasp.4.4
 LDA part: xc-table for Pade appr. of Perdew
 POSCAR, INCAR and KPOINTS ok, starting setup
 FFT: planning ...
 WAVECAR not read
 entering main loop
       N       E                     dE             d eps       ncg     rms          rms(c)
DAV:   1     0.161464721262E+04    0.16146E+04   -0.73160E+04 20168   0.177E+03
DAV:   2     0.590843847244E+02   -0.15556E+04   -0.14879E+04 16840   0.577E+02
DAV:   3    -0.683171906228E+02   -0.12740E+03   -0.11535E+03 18744   0.182E+02
DAV:   4    -0.736392555586E+02   -0.53221E+01   -0.52619E+01 18824   0.358E+01
DAV:   5    -0.737643113661E+02   -0.12506E+00   -0.12498E+00 18800   0.536E+00    0.358E+01
DAV:   6    -0.898150654865E+02   -0.16051E+02   -0.18748E+02 19164   0.124E+02    0.437E+01
DAV:   7    -0.639258632959E+02    0.25889E+02   -0.67326E+01 19504   0.859E+01    0.650E+00
DAV:   8    -0.650827137063E+02   -0.11569E+01   -0.75160E+00 20172   0.323E+01    0.110E+01
DAV:   9    -0.645384485609E+02    0.54427E+00   -0.20716E+00 19592   0.228E+01    0.379E+00
DAV:  10    -0.644943798332E+02    0.44069E-01   -0.44435E-01 22252   0.897E+00    0.269E+00
DAV:  11    -0.644589266547E+02    0.35453E-01   -0.16562E-01 19196   0.723E+00    0.934E-01
DAV:  12    -0.644620889795E+02   -0.31623E-02   -0.48733E-02 19840   0.308E+00    0.102E+00
DAV:  13    -0.644552728390E+02    0.68161E-02   -0.19876E-02 19280   0.290E+00    0.414E-01
DAV:  14    -0.644539396693E+02    0.13332E-02   -0.63644E-03 21064   0.106E+00    0.172E-01
DAV:  15    -0.644540411849E+02   -0.10152E-03   -0.13853E-03 19496   0.608E-01    0.187E-01
DAV:  16    -0.644537845958E+02    0.25659E-03   -0.58366E-04 19352   0.443E-01    0.415E-02
DAV:  17    -0.644537959701E+02   -0.11374E-04   -0.11557E-04 19012   0.830E-02    0.180E-02
DAV:  18    -0.644537947783E+02    0.11919E-05   -0.94946E-06 20732   0.348E-02    0.589E-03
DAV:  19    -0.644537944614E+02    0.31692E-06   -0.23408E-06 18684   0.138E-02    0.196E-03
DAV:  20    -0.644537943003E+02    0.16102E-06   -0.17296E-07 18072   0.298E-03    0.959E-04
DAV:  21    -0.644537941002E+02    0.20010E-06   -0.24586E-08 13768   0.134E-03    0.354E-04
DAV:  22    -0.644537940773E+02    0.22923E-07   -0.62747E-09  9444   0.787E-04    0.113E-04
DAV:  23    -0.644537940775E+02   -0.18190E-09   -0.17037E-09  9352   0.250E-04
   1 F= -.64453794E+02 E0= -.64453763E+02  d E =-.644538E+02  mag=     0.0000
 curvature:   0.00 expect dE= 0.000E+00 dE for cont linesearch  0.000E+00
 trial: gam= 0.00000 g(F)=  0.333E+00 g(S)=  0.327E+01 ort = 0.000E+00 (trialstep = 0.100E+01)
 search vector abs. value=  0.360E+01
 bond charge predicted
       N       E                     dE             d eps       ncg     rms          rms(c)
DAV:   1    -0.221737705446E+03   -0.15728E+03   -0.17656E+03 17240   0.403E+02    0.102E+02
DAV:   2    -0.153373118655E+03    0.68365E+02   -0.12215E+03 19484   0.240E+02    0.811E+01
DAV:   3    -0.832356598176E+02    0.70137E+02   -0.43316E+02 19536   0.165E+02    0.410E+01
DAV:   4    -0.701817373159E+02    0.13054E+02   -0.66627E+01 19624   0.811E+01    0.216E+01
DAV:   5    -0.663540626755E+02    0.38277E+01   -0.16233E+01 21160   0.464E+01    0.873E+00
DAV:   6    -0.658174416175E+02    0.53662E+00   -0.23861E+00 21456   0.179E+01    0.637E+00
DAV:   7    -0.655211194813E+02    0.29632E+00   -0.18193E+00 20516   0.178E+01    0.707E+00
DAV:   8    -0.654286600359E+02    0.92459E-01   -0.11096E+00 18572   0.136E+01    0.548E+00
DAV:   9    -0.652117729066E+02    0.21689E+00   -0.29722E-01 19636   0.939E+00    0.154E+00
DAV:  10    -0.652098112127E+02    0.19617E-02   -0.94615E-02 21560   0.441E+00    0.150E+00
DAV:  11    -0.652021631529E+02    0.76481E-02   -0.50643E-02 20276   0.343E+00    0.955E-01
DAV:  12    -0.651953093763E+02    0.68538E-02   -0.11546E-02 20824   0.130E+00    0.241E-01
DAV:  13    -0.651950785329E+02    0.23084E-03   -0.49015E-03 18448   0.534E-01    0.981E-02
DAV:  14    -0.651950300671E+02    0.48466E-04   -0.70184E-04 18408   0.266E-01    0.602E-02
DAV:  15    -0.651950089398E+02    0.21127E-04   -0.13514E-04 18528   0.116E-01    0.214E-02
DAV:  16    -0.651950047518E+02    0.41880E-05   -0.10703E-05 19272   0.384E-02    0.484E-03
DAV:  17    -0.651950049499E+02   -0.19811E-06   -0.32727E-06 19064   0.156E-02    0.302E-03
DAV:  18    -0.651950050169E+02   -0.67008E-07   -0.29605E-07 17812   0.556E-03    0.778E-04
DAV:  19    -0.651950049641E+02    0.52802E-07   -0.38227E-08 16088   0.218E-03    0.609E-04
DAV:  20    -0.651950049548E+02    0.93496E-08   -0.94214E-09  9228   0.109E-03
   2 F= -.65195005E+02 E0= -.65195379E+02  d E =-.741211E+00  mag=    -0.0000
 trial-energy change:   -0.741211  1 .order   -0.897930   -3.604748    1.808887
 step:   0.6252(harm=  0.6659)  dis= 0.05328  next Energy=   -65.542279 (dE=-0.109E+01)
 bond charge predicted
       N       E                     dE             d eps       ncg     rms          rms(c)
DAV:   1    -0.942661792764E+02   -0.29071E+02   -0.23997E+02 18220   0.132E+02    0.555E+01
DAV:   2    -0.127040696164E+03   -0.32775E+02   -0.43897E+02 18288   0.191E+02    0.587E+01
DAV:   3    -0.662223860761E+02    0.60818E+02   -0.15984E+02 18976   0.112E+02    0.764E+00
DAV:   4    -0.659868908987E+02    0.23550E+00   -0.79783E+00 21592   0.226E+01    0.837E+00
DAV:   5    -0.659616201199E+02    0.25271E-01   -0.22370E+00 18800   0.189E+01    0.746E+00
DAV:   6    -0.656293947312E+02    0.33223E+00   -0.76424E-01 21128   0.138E+01    0.393E+00
DAV:   7    -0.655259099784E+02    0.10348E+00   -0.40212E-01 19228   0.909E+00    0.114E+00
DAV:   8    -0.655344384226E+02   -0.85284E-02   -0.88158E-02 21644   0.465E+00    0.146E+00
DAV:   9    -0.655200535851E+02    0.14385E-01   -0.26565E-02 18884   0.306E+00    0.327E-01
DAV:  10    -0.655199012106E+02    0.15237E-03   -0.56309E-03 22360   0.838E-01    0.233E-01
DAV:  11    -0.655197156526E+02    0.18556E-03   -0.17310E-03 18920   0.776E-01    0.138E-01
DAV:  12    -0.655196046223E+02    0.11103E-03   -0.31802E-04 19624   0.307E-01    0.405E-02
DAV:  13    -0.655195897272E+02    0.14895E-04   -0.81049E-05 19304   0.743E-02    0.657E-03
DAV:  14    -0.655195885871E+02    0.11400E-05   -0.70840E-06 18496   0.232E-02    0.329E-03
DAV:  15    -0.655195882103E+02    0.37680E-06   -0.74584E-07 18744   0.998E-03    0.235E-03
DAV:  16    -0.655195881973E+02    0.12998E-07   -0.11106E-07 17000   0.380E-03    0.773E-04
DAV:  17    -0.655195882154E+02   -0.18026E-07   -0.14409E-08 10516   0.109E-03    0.279E-04
DAV:  18    -0.655195882194E+02   -0.40127E-08   -0.63769E-09  9160   0.507E-04
   3 F= -.65519588E+02 E0= -.65520096E+02  d E =-.106579E+01  mag=     0.0000
 curvature:  -0.33 expect dE=-0.123E+00 dE for cont linesearch -0.570E-05
 trial: gam= 0.10656 g(F)=  0.101E+00 g(S)=  0.275E+00 ort =-0.792E-02 (trialstep = 0.925E+00)
 search vector abs. value=  0.415E+00
 bond charge predicted
       N       E                     dE             d eps       ncg     rms          rms(c)
DAV:   1    -0.676941139002E+02   -0.21745E+01   -0.55498E+01 18584   0.914E+01    0.160E+01
DAV:   2    -0.698311959752E+02   -0.21371E+01   -0.31769E+01 18696   0.493E+01    0.179E+01
DAV:   3    -0.660816243622E+02    0.37496E+01   -0.12253E+01 18648   0.316E+01    0.492E+00
DAV:   4    -0.661329458709E+02   -0.51322E-01   -0.11291E+00 21548   0.166E+01    0.734E+00
DAV:   5    -0.657893730323E+02    0.34357E+00   -0.56774E-01 19224   0.128E+01    0.945E-01
DAV:   6    -0.658088893012E+02   -0.19516E-01   -0.12392E-01 21828   0.467E+00    0.182E+00
DAV:   7    -0.657895747957E+02    0.19315E-01   -0.44234E-02 18764   0.336E+00    0.366E-01
DAV:   8    -0.657900069131E+02   -0.43212E-03   -0.79642E-03 21960   0.117E+00    0.352E-01
DAV:   9    -0.657893786668E+02    0.62825E-03   -0.22099E-03 19624   0.798E-01    0.109E-01
DAV:  10    -0.657895608420E+02   -0.18218E-03   -0.78010E-04 21448   0.500E-01    0.164E-01
DAV:  11    -0.657893902326E+02    0.17061E-03   -0.33882E-04 19320   0.388E-01    0.251E-02
DAV:  12    -0.657893885323E+02    0.17003E-05   -0.59417E-05 19888   0.598E-02    0.114E-02
DAV:  13    -0.657893869743E+02    0.15580E-05   -0.65469E-06 18408   0.336E-02    0.371E-03
DAV:  14    -0.657893866351E+02    0.33921E-06   -0.80734E-07 18416   0.109E-02    0.895E-04
DAV:  15    -0.657893865078E+02    0.12729E-06   -0.72279E-08 18896   0.244E-03    0.303E-04
DAV:  16    -0.657893864696E+02    0.38213E-07   -0.62527E-09  9208   0.672E-04    0.116E-04
DAV:  17    -0.657893864673E+02    0.22992E-08   -0.20283E-09  9160   0.458E-04
   4 F= -.65789386E+02 E0= -.65789631E+02  d E =-.269798E+00  mag=    -0.0000
 trial-energy change:   -0.269798  1 .order   -0.269840   -0.347212   -0.192469
 step:   2.0756(harm=  2.0756)  dis= 0.10926  next Energy=   -65.909125 (dE=-0.390E+00)
 bond charge predicted
       N       E                     dE             d eps       ncg     rms          rms(c)
DAV:   1    -0.692000443068E+02   -0.34107E+01   -0.90978E+01 18680   0.116E+02    0.206E+01
DAV:   2    -0.722635061599E+02   -0.30635E+01   -0.51808E+01 18496   0.635E+01    0.220E+01
DAV:   3    -0.663731900868E+02    0.58903E+01   -0.19347E+01 18648   0.403E+01    0.610E+00
DAV:   4    -0.664436519982E+02   -0.70462E-01   -0.16898E+00 22624   0.191E+01    0.103E+01
DAV:   5    -0.659721969849E+02    0.47146E+00   -0.14413E+00 19008   0.130E+01    0.264E+00
DAV:   6    -0.659547096745E+02    0.17487E-01   -0.24044E-01 21752   0.810E+00    0.185E+00
DAV:   7    -0.659337219938E+02    0.20988E-01   -0.74295E-02 19360   0.398E+00    0.609E-01
DAV:   8    -0.659327048639E+02    0.10171E-02   -0.12937E-02 19772   0.188E+00    0.387E-01
DAV:   9    -0.659322848486E+02    0.42002E-03   -0.47033E-03 19656   0.906E-01    0.142E-01
DAV:  10    -0.659322708208E+02    0.14028E-04   -0.77026E-04 18820   0.378E-01    0.896E-02
DAV:  11    -0.659322325176E+02    0.38303E-04   -0.17724E-04 19124   0.256E-01    0.411E-02
DAV:  12    -0.659322218133E+02    0.10704E-04   -0.44992E-05 19936   0.907E-02    0.116E-02
DAV:  13    -0.659322202452E+02    0.15681E-05   -0.70213E-06 18512   0.268E-02    0.258E-03
DAV:  14    -0.659322198798E+02    0.36545E-06   -0.64106E-07 19748   0.556E-03    0.126E-03
DAV:  15    -0.659322197439E+02    0.13583E-06   -0.45129E-08 17716   0.236E-03    0.454E-04
DAV:  16    -0.659322196956E+02    0.48323E-07   -0.14425E-08 10088   0.124E-03    0.786E-05
DAV:  17    -0.659322196984E+02   -0.27794E-08   -0.23461E-09  9164   0.321E-04
   5 F= -.65932220E+02 E0= -.65931705E+02  d E =-.412631E+00  mag=    -0.0000
 curvature:  -1.15 expect dE=-0.892E-01 dE for cont linesearch -0.656E-02
 ZBRENT: extrapolating
 opt :   2.4274  next Energy=   -65.940792 (dE=-0.421E+00)
 bond charge predicted
       N       E                     dE             d eps       ncg     rms          rms(c)
DAV:   1    -0.662951669153E+02   -0.36295E+00   -0.91675E+00 19480   0.359E+01    0.662E+00
DAV:   2    -0.666196685400E+02   -0.32450E+00   -0.54834E+00 18608   0.207E+01    0.734E+00
DAV:   3    -0.659954209261E+02    0.62425E+00   -0.19852E+00 18424   0.138E+01    0.240E+00
DAV:   4    -0.660923285701E+02   -0.96908E-01   -0.42210E-01 19600   0.107E+01    0.520E+00
DAV:   5    -0.659586114441E+02    0.13372E+00   -0.30931E-01 19872   0.632E+00    0.152E+00
DAV:   6    -0.659434856068E+02    0.15126E-01   -0.43524E-02 21924   0.350E+00    0.388E-01
DAV:   7    -0.659433246321E+02    0.16097E-03   -0.96414E-03 19876   0.116E+00    0.308E-01
DAV:   8    -0.659428318610E+02    0.49277E-03   -0.23268E-03 19088   0.927E-01    0.126E-01
DAV:   9    -0.659427952009E+02    0.36660E-04   -0.45733E-04 19844   0.254E-01    0.439E-02
DAV:  10    -0.659428247033E+02   -0.29502E-04   -0.14831E-04 19112   0.194E-01    0.586E-02
DAV:  11    -0.659428024778E+02    0.22225E-04   -0.50538E-05 18792   0.149E-01    0.111E-02
DAV:  12    -0.659428013342E+02    0.11436E-05   -0.80484E-06 20584   0.253E-02    0.418E-03
DAV:  13    -0.659428009699E+02    0.36434E-06   -0.12050E-06 18856   0.111E-02    0.208E-03
DAV:  14    -0.659428008792E+02    0.90666E-07   -0.15082E-07 18896   0.537E-03    0.483E-04
DAV:  15    -0.659428008176E+02    0.61656E-07   -0.15153E-08  9480   0.137E-03    0.128E-04
DAV:  16    -0.659428007947E+02    0.22879E-07   -0.40091E-09  9136   0.508E-04    0.761E-05
DAV:  17    -0.659428007946E+02    0.13461E-09   -0.10859E-09  9076   0.243E-04
   6 F= -.65942801E+02 E0= -.65942429E+02  d E =-.423213E+00  mag=    -0.0000
 curvature:  -1.50 expect dE=-0.204E+00 dE for cont linesearch -0.481E-03
 trial: gam= 0.47661 g(F)=  0.411E-01 g(S)=  0.951E-01 ort = 0.115E-01 (trialstep = 0.123E+01)
 search vector abs. value=  0.241E+00
 bond charge predicted
       N       E                     dE             d eps       ncg     rms          rms(c)
DAV:   1    -0.691127201038E+02   -0.31699E+01   -0.10982E+02 18408   0.169E+02    0.230E+01
DAV:   2    -0.756248304677E+02   -0.65121E+01   -0.98701E+01 19288   0.807E+01    0.289E+01
DAV:   3    -0.673975520132E+02    0.82273E+01   -0.28152E+01 18616   0.511E+01    0.130E+01
DAV:   4    -0.663816266454E+02    0.10159E+01   -0.50665E+00 18928   0.313E+01    0.612E+00
DAV:   5    -0.662773971727E+02    0.10423E+00   -0.14938E+00 20208   0.164E+01    0.629E+00
DAV:   6    -0.660317440573E+02    0.24565E+00   -0.67267E-01 19528   0.137E+01    0.167E+00
DAV:   7    -0.660213447144E+02    0.10399E-01   -0.12908E-01 19552   0.443E+00    0.998E-01
DAV:   8    -0.660164255133E+02    0.49192E-02   -0.28936E-02 19088   0.285E+00    0.398E-01
DAV:   9    -0.660155881026E+02    0.83741E-03   -0.73727E-03 18288   0.109E+00    0.218E-01
DAV:  10    -0.660156762226E+02   -0.88120E-04   -0.20129E-03 18944   0.834E-01    0.220E-01
DAV:  11    -0.660153947681E+02    0.28145E-03   -0.80452E-04 19224   0.502E-01    0.496E-02
DAV:  12    -0.660154007354E+02   -0.59672E-05   -0.14766E-04 21416   0.113E-01    0.196E-02
DAV:  13    -0.660154001247E+02    0.61065E-06   -0.18920E-05 19208   0.437E-02    0.579E-03
DAV:  14    -0.660154004944E+02   -0.36964E-06   -0.27371E-06 18712   0.202E-02    0.598E-03
DAV:  15    -0.660154005183E+02   -0.23952E-07   -0.78961E-07 19016   0.121E-02    0.138E-03
DAV:  16    -0.660154005099E+02    0.83746E-08   -0.97850E-08 17424   0.325E-03
   7 F= -.66015401E+02 E0= -.66015329E+02  d E =-.725997E-01  mag=     0.0000
 trial-energy change:   -0.072600  1 .order   -0.069801   -0.173550    0.033948
 step:   1.0379(harm=  1.0250)  dis= 0.03595  next Energy=   -66.017989 (dE=-0.752E-01)
 bond charge predicted
       N       E                     dE             d eps       ncg     rms          rms(c)
DAV:   1    -0.660840399955E+02   -0.68639E-01   -0.23536E+00 18912   0.259E+01    0.355E+00
DAV:   2    -0.662459617784E+02   -0.16192E+00   -0.21201E+00 18824   0.122E+01    0.431E+00
DAV:   3    -0.660425357361E+02    0.20343E+00   -0.68432E-01 18840   0.867E+00    0.210E+00
DAV:   4    -0.660286423118E+02    0.13893E-01   -0.12117E-01 19832   0.436E+00    0.107E+00
DAV:   5    -0.660187861772E+02    0.98561E-02   -0.17239E-02 22728   0.173E+00    0.412E-01
DAV:   6    -0.660192385389E+02   -0.45236E-03   -0.80304E-03 19736   0.186E+00    0.469E-01
DAV:   7    -0.660177865108E+02    0.14520E-02   -0.28681E-03 19176   0.996E-01    0.987E-02
DAV:   8    -0.660177919157E+02   -0.54049E-05   -0.56730E-04 21720   0.387E-01    0.861E-02
DAV:   9    -0.660177481207E+02    0.43795E-04   -0.16070E-04 18912   0.203E-01    0.208E-02
DAV:  10    -0.660177557869E+02   -0.76661E-05   -0.38513E-05 20736   0.982E-02    0.353E-02
DAV:  11    -0.660177474064E+02    0.83805E-05   -0.16366E-05 18968   0.859E-02    0.461E-03
DAV:  12    -0.660177472007E+02    0.20563E-06   -0.27061E-06 19280   0.125E-02    0.204E-03
DAV:  13    -0.660177470142E+02    0.18655E-06   -0.20781E-07 19088   0.555E-03    0.669E-04
DAV:  14    -0.660177469296E+02    0.84616E-07   -0.31282E-08 14056   0.190E-03    0.183E-04
DAV:  15    -0.660177469223E+02    0.72505E-08   -0.28436E-09  9216   0.558E-04
   8 F= -.66017747E+02 E0= -.66017602E+02  d E =-.749461E-01  mag=    -0.0000
 curvature:  -0.87 expect dE=-0.471E-01 dE for cont linesearch -0.777E-06
 trial: gam= 0.52135 g(F)=  0.201E-01 g(S)=  0.340E-01 ort =-0.464E-03 (trialstep = 0.119E+01)
 search vector abs. value=  0.119E+00
 bond charge predicted
       N       E                     dE             d eps       ncg     rms          rms(c)
DAV:   1    -0.651061397056E+02    0.91161E+00   -0.47743E+01 22112   0.145E+02    0.925E+00
DAV:   2    -0.671275788685E+02   -0.20214E+01   -0.24502E+01 19328   0.341E+01    0.925E+00
DAV:   3    -0.662411631932E+02    0.88642E+00   -0.39252E+00 18952   0.210E+01    0.478E+00
DAV:   4    -0.662761293805E+02   -0.34966E-01   -0.10565E+00 19232   0.149E+01    0.526E+00
DAV:   5    -0.660758490520E+02    0.20028E+00   -0.29654E-01 20528   0.921E+00    0.157E+00
DAV:   6    -0.660967785482E+02   -0.20929E-01   -0.16674E-01 22064   0.631E+00    0.234E+00
DAV:   7    -0.660619291059E+02    0.34849E-01   -0.70100E-02 18984   0.485E+00    0.420E-01
DAV:   8    -0.660616707473E+02    0.25836E-03   -0.11071E-02 21144   0.144E+00    0.282E-01
DAV:   9    -0.660613051037E+02    0.36564E-03   -0.25966E-03 18952   0.735E-01    0.801E-02
DAV:  10    -0.660613363874E+02   -0.31284E-04   -0.36120E-04 18264   0.161E-01    0.259E-02
DAV:  11    -0.660613472797E+02   -0.10892E-04   -0.48252E-05 21416   0.114E-01    0.394E-02
DAV:  12    -0.660613375655E+02    0.97142E-05   -0.20555E-05 19152   0.920E-02    0.111E-02
DAV:  13    -0.660613362080E+02    0.13575E-05   -0.50271E-06 18808   0.175E-02    0.245E-03
DAV:  14    -0.660613358871E+02    0.32098E-06   -0.46743E-07 20016   0.510E-03    0.109E-03
DAV:  15    -0.660613358124E+02    0.74640E-07   -0.98917E-08 17008   0.344E-03    0.354E-04
DAV:  16    -0.660613357676E+02    0.44787E-07   -0.58923E-09  9264   0.928E-04    0.108E-04
DAV:  17    -0.660613357527E+02    0.14952E-07   -0.18501E-09  9168   0.352E-04    0.342E-05
DAV:  18    -0.660613357545E+02   -0.17826E-08   -0.59957E-10  9096   0.162E-04
   9 F= -.66061336E+02 E0= -.66061436E+02  d E =-.435888E-01  mag=     0.0000
 trial-energy change:   -0.043589  1 .order   -0.043890   -0.064022   -0.023757
 step:   1.9444(harm=  1.8889)  dis= 0.06136  next Energy=   -66.068822 (dE=-0.511E-01)
 bond charge predicted
       N       E                     dE             d eps       ncg     rms          rms(c)
DAV:   1    -0.656443429635E+02    0.41699E+00   -0.19082E+01 20624   0.924E+01    0.580E+00
DAV:   2    -0.664541238018E+02   -0.80978E+00   -0.10105E+01 19096   0.215E+01    0.555E+00
DAV:   3    -0.661587739459E+02    0.29535E+00   -0.15024E+00 18904   0.131E+01    0.341E+00
DAV:   4    -0.661517145227E+02    0.70594E-02   -0.44203E-01 20552   0.936E+00    0.325E+00
DAV:   5    -0.660761100545E+02    0.75604E-01   -0.11563E-01 20752   0.557E+00    0.103E+00
DAV:   6    -0.660859398401E+02   -0.98298E-02   -0.65291E-02 21016   0.442E+00    0.163E+00
DAV:   7    -0.660693353656E+02    0.16604E-01   -0.30570E-02 19096   0.304E+00    0.164E-01
DAV:   8    -0.660696854489E+02   -0.35008E-03   -0.41600E-03 21280   0.780E-01    0.222E-01
DAV:   9    -0.660694015516E+02    0.28390E-03   -0.10404E-03 18896   0.538E-01    0.518E-02
DAV:  10    -0.660694141583E+02   -0.12607E-04   -0.16698E-04 18512   0.110E-01    0.260E-02
DAV:  11    -0.660694143476E+02   -0.18933E-06   -0.25091E-05 19296   0.100E-01    0.214E-02
DAV:  12    -0.660694120026E+02    0.23450E-05   -0.78461E-06 21560   0.503E-02    0.636E-03
DAV:  13    -0.660694115191E+02    0.48348E-06   -0.21997E-06 18512   0.125E-02    0.124E-03
DAV:  14    -0.660694113344E+02    0.18478E-06   -0.16947E-07 19768   0.376E-03    0.672E-04
DAV:  15    -0.660694112912E+02    0.43139E-07   -0.22030E-08 12040   0.181E-03    0.179E-04
DAV:  16    -0.660694112654E+02    0.25841E-07   -0.33578E-09  9240   0.482E-04    0.587E-05
DAV:  17    -0.660694112592E+02    0.61737E-08   -0.10206E-09  9056   0.219E-04
  10 F= -.66069411E+02 E0= -.66069281E+02  d E =-.516643E-01  mag=    -0.0000
 curvature:  -2.08 expect dE=-0.407E-01 dE for cont linesearch -0.345E-04
 trial: gam= 0.33128 g(F)=  0.135E-01 g(S)=  0.607E-02 ort = 0.141E-02 (trialstep = 0.134E+01)
 search vector abs. value=  0.336E-01
 bond charge predicted
       N       E                     dE             d eps       ncg     rms          rms(c)
DAV:   1    -0.657284181478E+02    0.34099E+00   -0.11295E+01 22064   0.733E+01    0.337E+00
DAV:   2    -0.661626625223E+02   -0.43424E+00   -0.53828E+00 17864   0.142E+01    0.256E+00
DAV:   3    -0.661613176400E+02    0.13449E-02   -0.40317E-01 19776   0.966E+00    0.294E+00
DAV:   4    -0.661246850558E+02    0.36633E-01   -0.21866E-01 19408   0.824E+00    0.197E+00
DAV:   5    -0.660931112908E+02    0.31574E-01   -0.69202E-02 21552   0.402E+00    0.722E-01
DAV:   6    -0.660962499342E+02   -0.31386E-02   -0.31080E-02 19896   0.342E+00    0.950E-01
DAV:   7    -0.660903098630E+02    0.59401E-02   -0.12029E-02 18864   0.203E+00    0.294E-01
DAV:   8    -0.660899424006E+02    0.36746E-03   -0.22183E-03 20704   0.551E-01    0.864E-02
DAV:   9    -0.660899496880E+02   -0.72874E-05   -0.38701E-04 19136   0.204E-01    0.570E-02
DAV:  10    -0.660899496255E+02    0.62457E-07   -0.10957E-04 19080   0.188E-01    0.451E-02
DAV:  11    -0.660899426667E+02    0.69588E-05   -0.48175E-05 18752   0.987E-02    0.108E-02
DAV:  12    -0.660899415703E+02    0.10963E-05   -0.58731E-06 19120   0.217E-02    0.253E-03
DAV:  13    -0.660899415774E+02   -0.70613E-08   -0.43128E-07 19632   0.436E-03    0.952E-04
DAV:  14    -0.660899415685E+02    0.88876E-08   -0.33178E-08 15768   0.157E-03
  11 F= -.66089942E+02 E0= -.66089533E+02  d E =-.205303E-01  mag=     0.0000
 trial-energy change:   -0.020530  1 .order   -0.020445   -0.026840   -0.014050
 step:   2.7001(harm=  2.8104)  dis= 0.03285  next Energy=   -66.097169 (dE=-0.278E-01)
 bond charge predicted
       N       E                     dE             d eps       ncg     rms          rms(c)
DAV:   1    -0.657277777584E+02    0.36216E+00   -0.11713E+01 21952   0.742E+01    0.346E+00
DAV:   2    -0.661772589707E+02   -0.44948E+00   -0.55550E+00 17992   0.146E+01    0.272E+00
DAV:   3    -0.661767593317E+02    0.49964E-03   -0.44281E-01 19696   0.104E+01    0.311E+00
DAV:   4    -0.661319803170E+02    0.44779E-01   -0.22675E-01 19432   0.819E+00    0.192E+00
DAV:   5    -0.661013599766E+02    0.30620E-01   -0.68834E-02 21704   0.411E+00    0.757E-01
DAV:   6    -0.661036024077E+02   -0.22424E-02   -0.32915E-02 19736   0.353E+00    0.900E-01
DAV:   7    -0.660977767147E+02    0.58257E-02   -0.11132E-02 18696   0.211E+00    0.170E-01
DAV:   8    -0.660978050476E+02   -0.28333E-04   -0.18097E-03 20144   0.416E-01    0.115E-01
DAV:   9    -0.660977712461E+02    0.33802E-04   -0.34903E-04 18992   0.216E-01    0.469E-02
DAV:  10    -0.660977802101E+02   -0.89640E-05   -0.89515E-05 19608   0.162E-01    0.486E-02
DAV:  11    -0.660977707076E+02    0.95025E-05   -0.51108E-05 19000   0.111E-01    0.122E-02
DAV:  12    -0.660977692720E+02    0.14356E-05   -0.61732E-06 19320   0.228E-02    0.329E-03
DAV:  13    -0.660977692206E+02    0.51376E-07   -0.62440E-07 19680   0.552E-03    0.996E-04
DAV:  14    -0.660977692013E+02    0.19252E-07   -0.52076E-08 16616   0.201E-03    0.398E-04
DAV:  15    -0.660977691886E+02    0.12686E-07   -0.68833E-09  9248   0.908E-04    0.113E-04
DAV:  16    -0.660977691803E+02    0.83455E-08   -0.22108E-09  9152   0.342E-04
  12 F= -.66097769E+02 E0= -.66097090E+02  d E =-.283579E-01  mag=    -0.0000
 curvature:  -2.34 expect dE=-0.213E-01 dE for cont linesearch -0.601E-04
 trial: gam= 0.50077 g(F)=  0.339E-02 g(S)=  0.572E-02 ort = 0.928E-03 (trialstep = 0.161E+01)
 search vector abs. value=  0.185E-01
 bond charge predicted
       N       E                     dE             d eps       ncg     rms          rms(c)
DAV:   1    -0.655475210566E+02    0.55025E+00   -0.13485E+01 23728   0.839E+01    0.312E+00
DAV:   2    -0.661807437036E+02   -0.63322E+00   -0.70818E+00 18688   0.151E+01    0.292E+00
DAV:   3    -0.661884972406E+02   -0.77535E-02   -0.52837E-01 20752   0.935E+00    0.334E+00
DAV:   4    -0.661273180328E+02    0.61179E-01   -0.17101E-01 18716   0.739E+00    0.140E+00
DAV:   5    -0.661088311867E+02    0.18487E-01   -0.44796E-02 22488   0.274E+00    0.615E-01
DAV:   6    -0.661152475638E+02   -0.64164E-02   -0.34931E-02 19380   0.346E+00    0.110E+00
DAV:   7    -0.661063522007E+02    0.88954E-02   -0.14386E-02 19136   0.218E+00    0.228E-01
DAV:   8    -0.661061760491E+02    0.17615E-03   -0.22033E-03 22500   0.596E-01    0.104E-01
DAV:   9    -0.661061729382E+02    0.31109E-05   -0.51256E-04 18524   0.240E-01    0.472E-02
DAV:  10    -0.661061838330E+02   -0.10895E-04   -0.82424E-05 20156   0.144E-01    0.491E-02
DAV:  11    -0.661061718936E+02    0.11939E-04   -0.41221E-05 19100   0.120E-01    0.123E-02
DAV:  12    -0.661061719757E+02   -0.82138E-07   -0.60750E-06 20528   0.218E-02    0.470E-03
DAV:  13    -0.661061719951E+02   -0.19361E-07   -0.11053E-06 19376   0.908E-03    0.120E-03
DAV:  14    -0.661061719984E+02   -0.33360E-08   -0.12451E-07 18320   0.370E-03    0.432E-04
DAV:  15    -0.661061720224E+02   -0.24051E-07   -0.99196E-09  9328   0.110E-03    0.115E-04
DAV:  16    -0.661061720254E+02   -0.29795E-08   -0.19779E-09  9096   0.354E-04
  13 F= -.66106172E+02 E0= -.66105942E+02  d E =-.840285E-02  mag=    -0.0000
 trial-energy change:   -0.008403  1 .order   -0.008254   -0.015427   -0.001081
 step:   1.7253(harm=  1.7329)  dis= 0.01672  next Energy=   -66.106210 (dE=-0.844E-02)
 bond charge predicted
       N       E                     dE             d eps       ncg     rms          rms(c)
DAV:   1    -0.661036208924E+02    0.25511E-02   -0.68887E-02 25520   0.599E+00    0.221E-01
DAV:   2    -0.661066126945E+02   -0.29918E-02   -0.33580E-02 18216   0.106E+00    0.208E-01
DAV:   3    -0.661065715762E+02    0.41118E-04   -0.25755E-03 19608   0.686E-01    0.226E-01
DAV:   4    -0.661063303463E+02    0.24123E-03   -0.83334E-04 18848   0.465E-01    0.107E-01
DAV:   5    -0.661062388761E+02    0.91470E-04   -0.22383E-04 22552   0.202E-01    0.638E-02
DAV:   6    -0.661062423695E+02   -0.34934E-05   -0.18242E-04 19576   0.231E-01    0.667E-02
DAV:   7    -0.661062123920E+02    0.29978E-04   -0.56005E-05 19312   0.126E-01    0.114E-02
DAV:   8    -0.661062122259E+02    0.16611E-06   -0.85604E-06 21992   0.362E-02    0.619E-03
DAV:   9    -0.661062122961E+02   -0.70188E-07   -0.18316E-06 18336   0.161E-02    0.259E-03
DAV:  10    -0.661062123779E+02   -0.81855E-07   -0.25204E-07 19272   0.604E-03    0.185E-03
DAV:  11    -0.661062123741E+02    0.38599E-08   -0.93731E-08 18200   0.547E-03
  14 F= -.66106212E+02 E0= -.66106030E+02  d E =-.844319E-02  mag=    -0.0000
 curvature:  -1.66 expect dE=-0.661E-02 dE for cont linesearch -0.169E-07
 trial: gam= 0.42278 g(F)=  0.136E-02 g(S)=  0.262E-02 ort = 0.137E-04 (trialstep = 0.163E+01)
 search vector abs. value=  0.728E-02
 bond charge predicted
       N       E                     dE             d eps       ncg     rms          rms(c)
DAV:   1    -0.661524281197E+02   -0.46216E-01   -0.66070E+00 19192   0.560E+01    0.572E+00
DAV:   2    -0.666753912590E+02   -0.52296E+00   -0.63736E+00 18904   0.207E+01    0.678E+00
DAV:   3    -0.661835256746E+02    0.49187E+00   -0.18468E+00 18816   0.162E+01    0.392E+00
DAV:   4    -0.661199069010E+02    0.63619E-01   -0.40878E-01 19208   0.753E+00    0.120E+00
DAV:   5    -0.661154836388E+02    0.44233E-02   -0.29609E-02 21376   0.218E+00    0.105E+00
DAV:   6    -0.661092679720E+02    0.62157E-02   -0.14702E-02 19344   0.240E+00    0.570E-01
DAV:   7    -0.661076012160E+02    0.16668E-02   -0.92231E-03 19736   0.118E+00    0.338E-01
DAV:   8    -0.661069126637E+02    0.68855E-03   -0.23771E-03 18960   0.822E-01    0.104E-01
DAV:   9    -0.661067961212E+02    0.11654E-03   -0.64091E-04 19008   0.221E-01    0.318E-02
DAV:  10    -0.661067881394E+02    0.79818E-05   -0.38725E-05 19272   0.573E-02    0.102E-02
DAV:  11    -0.661067877462E+02    0.39321E-06   -0.71102E-06 21112   0.267E-02    0.878E-03
DAV:  12    -0.661067873460E+02    0.40014E-06   -0.19794E-06 19080   0.255E-02    0.544E-03
DAV:  13    -0.661067867444E+02    0.60159E-06   -0.85157E-07 18848   0.110E-02    0.633E-04
DAV:  14    -0.661067866387E+02    0.10576E-06   -0.89715E-08 16808   0.199E-03    0.443E-04
DAV:  15    -0.661067865989E+02    0.39814E-07   -0.98237E-09  9216   0.987E-04    0.102E-04
DAV:  16    -0.661067865719E+02    0.27016E-07   -0.19093E-09  9052   0.259E-04    0.473E-05
DAV:  17    -0.661067865624E+02    0.94842E-08   -0.39454E-10  8936   0.129E-04
  15 F= -.66106787E+02 E0= -.66106775E+02  d E =-.574188E-03  mag=     0.0000
 trial-energy change:   -0.000574  1 .order   -0.000526   -0.006501    0.005448
 step:   0.8988(harm=  0.8891)  dis= 0.00502  next Energy=   -66.108008 (dE=-0.180E-02)
 bond charge predicted
       N       E                     dE             d eps       ncg     rms          rms(c)
DAV:   1    -0.661165531289E+02   -0.97666E-02   -0.13651E+00 18856   0.252E+01    0.256E+00
DAV:   2    -0.662236139580E+02   -0.10706E+00   -0.13188E+00 19040   0.933E+00    0.316E+00
DAV:   3    -0.661337507534E+02    0.89863E-01   -0.39973E-01 18852   0.702E+00    0.211E+00
DAV:   4    -0.661104146536E+02    0.23336E-01   -0.91129E-02 19472   0.463E+00    0.512E-01
DAV:   5    -0.661092526001E+02    0.11621E-02   -0.74317E-03 21736   0.929E-01    0.387E-01
DAV:   6    -0.661086380100E+02    0.61459E-03   -0.29232E-03 18808   0.104E+00    0.285E-01
DAV:   7    -0.661080613622E+02    0.57665E-03   -0.15674E-03 19256   0.577E-01    0.831E-02
DAV:   8    -0.661080558962E+02    0.54660E-05   -0.31775E-04 20416   0.230E-01    0.706E-02
DAV:   9    -0.661080163397E+02    0.39557E-04   -0.13589E-04 19280   0.150E-01    0.179E-02
DAV:  10    -0.661080176660E+02   -0.13263E-05   -0.22553E-05 21448   0.661E-02    0.205E-02
DAV:  11    -0.661080151742E+02    0.24918E-05   -0.79737E-06 19032   0.450E-02    0.948E-03
DAV:  12    -0.661080148360E+02    0.33816E-06   -0.38230E-06 20904   0.158E-02    0.370E-03
DAV:  13    -0.661080149204E+02   -0.84423E-07   -0.56483E-07 18880   0.666E-03    0.439E-04
DAV:  14    -0.661080149722E+02   -0.51758E-07   -0.18243E-08 11552   0.111E-03    0.193E-04
DAV:  15    -0.661080150141E+02   -0.41939E-07   -0.32198E-09  9024   0.501E-04    0.794E-05
DAV:  16    -0.661080150157E+02   -0.15643E-08   -0.59837E-10  8848   0.220E-04
  16 F= -.66108015E+02 E0= -.66107921E+02  d E =-.180264E-02  mag=     0.0000
 curvature:  -0.81 expect dE=-0.168E-02 dE for cont linesearch -0.595E-08
 trial: gam= 0.50046 g(F)=  0.941E-03 g(S)=  0.112E-02 ort = 0.730E-05 (trialstep = 0.149E+01)
 search vector abs. value=  0.389E-02
 bond charge predicted
       N       E                     dE             d eps       ncg     rms          rms(c)
DAV:   1    -0.660289520871E+02    0.79063E-01   -0.20991E+00 25432   0.346E+01    0.875E-01
DAV:   2    -0.661185138182E+02   -0.89562E-01   -0.92670E-01 18224   0.514E+00    0.970E-01
DAV:   3    -0.661147466171E+02    0.37672E-02   -0.58092E-02 20160   0.306E+00    0.801E-01
DAV:   4    -0.661112376656E+02    0.35090E-02   -0.12711E-02 19008   0.189E+00    0.299E-01
DAV:   5    -0.661107942547E+02    0.44341E-03   -0.18151E-03 23488   0.584E-01    0.236E-01
DAV:   6    -0.661106486420E+02    0.14561E-03   -0.12714E-03 20288   0.641E-01    0.211E-01
DAV:   7    -0.661105968701E+02    0.51772E-04   -0.10586E-03 21800   0.554E-01    0.217E-01
DAV:   8    -0.661102861841E+02    0.31069E-03   -0.55031E-04 20208   0.418E-01    0.313E-02
DAV:   9    -0.661102830412E+02    0.31429E-05   -0.11968E-04 19024   0.724E-02    0.123E-02
DAV:  10    -0.661102833914E+02   -0.35016E-06   -0.68403E-06 19520   0.364E-02    0.109E-02
DAV:  11    -0.661102828812E+02    0.51016E-06   -0.21534E-06 19312   0.261E-02    0.401E-03
DAV:  12    -0.661102830954E+02   -0.21419E-06   -0.43849E-07 22176   0.717E-03    0.103E-03
DAV:  13    -0.661102831416E+02   -0.46181E-07   -0.52792E-08 16752   0.254E-03    0.236E-04
DAV:  14    -0.661102831536E+02   -0.12031E-07   -0.53870E-09  9056   0.674E-04    0.633E-05
DAV:  15    -0.661102831598E+02   -0.62064E-08   -0.86156E-10  8968   0.227E-04
  17 F= -.66110283E+02 E0= -.66110193E+02  d E =-.226814E-02  mag=    -0.0000
 trial-energy change:   -0.002268  1 .order   -0.002246   -0.003072   -0.001419
 step:   2.6048(harm=  2.7640)  dis= 0.01470  next Energy=   -66.110826 (dE=-0.281E-02)
 bond charge predicted
       N       E                     dE             d eps       ncg     rms          rms(c)
DAV:   1    -0.660650802793E+02    0.45203E-01   -0.11863E+00 25632   0.260E+01    0.659E-01
DAV:   2    -0.661155069289E+02   -0.50427E-01   -0.52209E-01 18184   0.388E+00    0.727E-01
DAV:   3    -0.661133367925E+02    0.21701E-02   -0.33003E-02 20240   0.230E+00    0.594E-01
DAV:   4    -0.661114247170E+02    0.19121E-02   -0.71463E-03 18904   0.139E+00    0.225E-01
DAV:   5    -0.661111664227E+02    0.25829E-03   -0.98325E-04 22960   0.436E-01    0.176E-01
DAV:   6    -0.661110924290E+02    0.73994E-04   -0.72007E-04 20344   0.484E-01    0.160E-01
DAV:   7    -0.661110522888E+02    0.40140E-04   -0.58843E-04 21840   0.413E-01    0.158E-01
DAV:   8    -0.661108867288E+02    0.16556E-03   -0.29670E-04 20176   0.306E-01    0.235E-02
DAV:   9    -0.661108850865E+02    0.16423E-05   -0.66956E-05 19184   0.544E-02    0.951E-03
DAV:  10    -0.661108852485E+02   -0.16202E-06   -0.38692E-06 19520   0.273E-02    0.823E-03
DAV:  11    -0.661108849629E+02    0.28561E-06   -0.12254E-06 19200   0.195E-02    0.292E-03
DAV:  12    -0.661108851204E+02   -0.15748E-06   -0.25345E-07 20784   0.515E-03    0.804E-04
DAV:  13    -0.661108851532E+02   -0.32829E-07   -0.30195E-08 13832   0.191E-03    0.178E-04
DAV:  14    -0.661108851612E+02   -0.79635E-08   -0.37592E-09  9000   0.547E-04
  18 F= -.66110885E+02 E0= -.66110799E+02  d E =-.287015E-02  mag=     0.0000
 curvature:  -2.56 expect dE=-0.292E-02 dE for cont linesearch -0.919E-05
 trial: gam= 0.48114 g(F)=  0.330E-03 g(S)=  0.810E-03 ort = 0.118E-03 (trialstep = 0.171E+01)
 search vector abs. value=  0.215E-02
 bond charge predicted
       N       E                     dE             d eps       ncg     rms          rms(c)
DAV:   1    -0.660720248819E+02    0.38860E-01   -0.12168E+00 22956   0.240E+01    0.987E-01
DAV:   2    -0.661170437949E+02   -0.45019E-01   -0.55077E-01 17328   0.418E+00    0.638E-01
DAV:   3    -0.661155975879E+02    0.14462E-02   -0.29940E-02 21636   0.173E+00    0.559E-01
DAV:   4    -0.661157256485E+02   -0.12806E-03   -0.14092E-02 19608   0.206E+00    0.709E-01
DAV:   5    -0.661125282555E+02    0.31974E-02   -0.78956E-03 19720   0.142E+00    0.233E-01
DAV:   6    -0.661129659840E+02   -0.43773E-03   -0.30531E-03 22016   0.954E-01    0.342E-01
DAV:   7    -0.661121939487E+02    0.77204E-03   -0.13599E-03 19544   0.705E-01    0.327E-02
DAV:   8    -0.661122106758E+02   -0.16727E-04   -0.17709E-04 22424   0.128E-01    0.456E-02
DAV:   9    -0.661122026267E+02    0.80492E-05   -0.46920E-05 18912   0.103E-01    0.131E-02
DAV:  10    -0.661122035914E+02   -0.96477E-06   -0.79951E-06 20008   0.353E-02    0.105E-02
DAV:  11    -0.661122032873E+02    0.30417E-06   -0.28520E-06 18960   0.284E-02    0.531E-03
DAV:  12    -0.661122033142E+02   -0.26947E-07   -0.62757E-07 19144   0.106E-02    0.910E-04
DAV:  13    -0.661122033182E+02   -0.40272E-08   -0.81003E-08 16912   0.262E-03
  19 F= -.66112203E+02 E0= -.66112032E+02  d E =-.131816E-02  mag=     0.0000
 trial-energy change:   -0.001318  1 .order   -0.001330   -0.002046   -0.000615
 step:   2.5055(harm=  2.4460)  dis= 0.00824  next Energy=   -66.112345 (dE=-0.146E-02)
 bond charge predicted
       N       E                     dE             d eps       ncg     rms          rms(c)
DAV:   1    -0.661037992194E+02    0.84041E-02   -0.26367E-01 23024   0.112E+01    0.459E-01
DAV:   2    -0.661134260242E+02   -0.96268E-02   -0.11791E-01 17352   0.192E+00    0.299E-01
DAV:   3    -0.661130956127E+02    0.33041E-03   -0.65400E-03 21248   0.806E-01    0.256E-01
DAV:   4    -0.661130909937E+02    0.46190E-05   -0.29288E-03 19648   0.976E-01    0.315E-01
DAV:   5    -0.661124244478E+02    0.66655E-03   -0.15412E-03 19808   0.682E-01    0.978E-02
DAV:   6    -0.661125504845E+02   -0.12604E-03   -0.67563E-04 22152   0.413E-01    0.169E-01
DAV:   7    -0.661123692240E+02    0.18126E-03   -0.31554E-04 19448   0.327E-01    0.147E-02
DAV:   8    -0.661123729079E+02   -0.36839E-05   -0.39554E-05 21640   0.573E-02    0.210E-02
DAV:   9    -0.661123712042E+02    0.17037E-05   -0.95912E-06 18880   0.475E-02    0.623E-03
DAV:  10    -0.661123713031E+02   -0.98949E-07   -0.17394E-06 19360   0.146E-02    0.353E-03
DAV:  11    -0.661123713607E+02   -0.57553E-07   -0.45031E-07 19344   0.117E-02    0.330E-03
DAV:  12    -0.661123713425E+02    0.18150E-07   -0.17454E-07 18992   0.686E-03    0.378E-04
DAV:  13    -0.661123713486E+02   -0.61082E-08   -0.26648E-08 13112   0.102E-03
  20 F= -.66112371E+02 E0= -.66112176E+02  d E =-.148619E-02  mag=     0.0000
 curvature:  -2.19 expect dE=-0.121E-02 dE for cont linesearch -0.253E-06
 trial: gam= 0.56159 g(F)=  0.205E-03 g(S)=  0.346E-03 ort =-0.158E-04 (trialstep = 0.187E+01)
 search vector abs. value=  0.121E-02
 bond charge predicted
       N       E                     dE             d eps       ncg     rms          rms(c)
DAV:   1    -0.660852823269E+02    0.27089E-01   -0.88194E-01 24040   0.211E+01    0.912E-01
DAV:   2    -0.661212486331E+02   -0.35966E-01   -0.41948E-01 18536   0.394E+00    0.891E-01
DAV:   3    -0.661178963923E+02    0.33522E-02   -0.41607E-02 19792   0.247E+00    0.850E-01
DAV:   4    -0.661148804645E+02    0.30159E-02   -0.16515E-02 19368   0.181E+00    0.447E-01
DAV:   5    -0.661131261399E+02    0.17543E-02   -0.33457E-03 22616   0.793E-01    0.190E-01
DAV:   6    -0.661134279228E+02   -0.30178E-03   -0.21897E-03 19520   0.867E-01    0.283E-01
DAV:   7    -0.661129099846E+02    0.51794E-03   -0.84444E-04 18992   0.558E-01    0.417E-02
DAV:   8    -0.661129072670E+02    0.27176E-05   -0.11581E-04 21228   0.122E-01    0.227E-02
DAV:   9    -0.661129058874E+02    0.13796E-05   -0.21119E-05 18528   0.513E-02    0.911E-03
DAV:  10    -0.661129068079E+02   -0.92049E-06   -0.39200E-06 20816   0.356E-02    0.127E-02
DAV:  11    -0.661129058217E+02    0.98622E-06   -0.23569E-06 19048   0.295E-02    0.263E-03
DAV:  12    -0.661129057253E+02    0.96308E-07   -0.37289E-07 18792   0.473E-03    0.795E-04
DAV:  13    -0.661129057043E+02    0.21017E-07   -0.38633E-08 14520   0.163E-03    0.285E-04
DAV:  14    -0.661129056971E+02    0.72614E-08   -0.53069E-09  9056   0.851E-04
  21 F= -.66112906E+02 E0= -.66112580E+02  d E =-.534348E-03  mag=    -0.0000
 trial-energy change:   -0.000534  1 .order   -0.000568   -0.001014   -0.000123
 step:   2.2238(harm=  2.1277)  dis= 0.00488  next Energy=   -66.112917 (dE=-0.546E-03)
 bond charge predicted
       N       E                     dE             d eps       ncg     rms          rms(c)
DAV:   1    -0.661119164093E+02    0.98930E-03   -0.31700E-02 24088   0.401E+00    0.172E-01
DAV:   2    -0.661132126155E+02   -0.12962E-02   -0.15020E-02 18504   0.739E-01    0.170E-01
DAV:   3    -0.661131041834E+02    0.10843E-03   -0.15216E-03 20032   0.469E-01    0.166E-01
DAV:   4    -0.661129792827E+02    0.12490E-03   -0.58157E-04 19048   0.345E-01    0.816E-02
DAV:   5    -0.661129181209E+02    0.61162E-04   -0.11516E-04 22712   0.146E-01    0.341E-02
DAV:   6    -0.661129310795E+02   -0.12959E-04   -0.79079E-05 19488   0.166E-01    0.554E-02
DAV:   7    -0.661129109079E+02    0.20172E-04   -0.31695E-05 19040   0.109E-01    0.887E-03
DAV:   8    -0.661129106336E+02    0.27427E-06   -0.42104E-06 21036   0.232E-02    0.387E-03
DAV:   9    -0.661129104778E+02    0.15582E-06   -0.70026E-07 18472   0.829E-03    0.170E-03
DAV:  10    -0.661129104648E+02    0.13006E-07   -0.12380E-07 21576   0.522E-03    0.184E-03
DAV:  11    -0.661129104363E+02    0.28434E-07   -0.54695E-08 15352   0.452E-03    0.513E-04
DAV:  12    -0.661129104227E+02    0.13591E-07   -0.85909E-09  8960   0.926E-04    0.118E-04
DAV:  13    -0.661129104211E+02    0.16189E-08   -0.23542E-09  8896   0.337E-04
  22 F= -.66112910E+02 E0= -.66112558E+02  d E =-.539072E-03  mag=    -0.0000
 curvature:  -2.05 expect dE=-0.105E-02 dE for cont linesearch -0.832E-06
 trial: gam= 0.93182 g(F)=  0.127E-03 g(S)=  0.385E-03 ort =-0.222E-04 (trialstep = 0.154E+01)
 search vector abs. value=  0.152E-02
 bond charge predicted
       N       E                     dE             d eps       ncg     rms          rms(c)
DAV:   1    -0.661182649225E+02   -0.53545E-02   -0.94664E-01 19232   0.205E+01    0.207E+00
DAV:   2    -0.661866655396E+02   -0.68401E-01   -0.85734E-01 18864   0.744E+00    0.250E+00
DAV:   3    -0.661276478741E+02    0.59018E-01   -0.24937E-01 18760   0.533E+00    0.158E+00
DAV:   4    -0.661151193217E+02    0.12529E-01   -0.50653E-02 19328   0.331E+00    0.469E-01
DAV:   5    -0.661139384568E+02    0.11809E-02   -0.52361E-03 22904   0.984E-01    0.357E-01
DAV:   6    -0.661133203507E+02    0.61811E-03   -0.29574E-03 19232   0.107E+00    0.224E-01
DAV:   7    -0.661130184514E+02    0.30190E-03   -0.81824E-04 19120   0.492E-01    0.985E-02
DAV:   8    -0.661129742142E+02    0.44237E-04   -0.24541E-04 19568   0.243E-01    0.413E-02
DAV:   9    -0.661129682326E+02    0.59816E-05   -0.60822E-05 18400   0.994E-02    0.147E-02
DAV:  10    -0.661129699210E+02   -0.16883E-05   -0.12362E-05 19712   0.564E-02    0.180E-02
DAV:  11    -0.661129685252E+02    0.13957E-05   -0.47278E-06 19192   0.388E-02    0.348E-03
DAV:  12    -0.661129687750E+02   -0.24980E-06   -0.85175E-07 19944   0.702E-03    0.164E-03
DAV:  13    -0.661129688580E+02   -0.82986E-07   -0.10864E-07 18008   0.292E-03    0.239E-04
DAV:  14    -0.661129689025E+02   -0.44511E-07   -0.55658E-09  9184   0.639E-04    0.121E-04
DAV:  15    -0.661129689135E+02   -0.10932E-07   -0.12205E-09  9024   0.326E-04    0.470E-05
DAV:  16    -0.661129689217E+02   -0.82255E-08   -0.44419E-10  8844   0.116E-04
  23 F= -.66112969E+02 E0= -.66112516E+02  d E =-.585006E-04  mag=     0.0000
 trial-energy change:   -0.000059  1 .order   -0.000071   -0.000758    0.000617
 step:   0.8313(harm=  0.8521)  dis= 0.00218  next Energy=   -66.113113 (dE=-0.202E-03)
 bond charge predicted
       N       E                     dE             d eps       ncg     rms          rms(c)
DAV:   1    -0.661143195618E+02   -0.13506E-02   -0.20079E-01 19264   0.947E+00    0.960E-01
DAV:   2    -0.661291274466E+02   -0.14808E-01   -0.18193E-01 18856   0.345E+00    0.115E+00
DAV:   3    -0.661158680848E+02    0.13259E-01   -0.52403E-02 18728   0.251E+00    0.702E-01
DAV:   4    -0.661136072743E+02    0.22608E-02   -0.10954E-02 19472   0.137E+00    0.222E-01
DAV:   5    -0.661133918120E+02    0.21546E-03   -0.10365E-03 22472   0.460E-01    0.190E-01
DAV:   6    -0.661131939522E+02    0.19786E-03   -0.65577E-04 19184   0.492E-01    0.101E-01
DAV:   7    -0.661131735890E+02    0.20363E-04   -0.24369E-04 21368   0.247E-01    0.866E-02
DAV:   8    -0.661131224849E+02    0.51104E-04   -0.10615E-04 19216   0.191E-01    0.131E-02
DAV:   9    -0.661131216222E+02    0.86272E-06   -0.17080E-05 18304   0.303E-02    0.593E-03
DAV:  10    -0.661131217763E+02   -0.15409E-06   -0.21182E-06 20312   0.229E-02    0.829E-03
DAV:  11    -0.661131212313E+02    0.54495E-06   -0.10299E-06 19568   0.196E-02    0.182E-03
DAV:  12    -0.661131211014E+02    0.12988E-06   -0.14869E-07 20672   0.445E-03    0.530E-04
DAV:  13    -0.661131210521E+02    0.49320E-07   -0.15541E-08  9728   0.153E-03    0.146E-04
DAV:  14    -0.661131210380E+02    0.14101E-07   -0.38825E-09  8904   0.531E-04    0.493E-05
DAV:  15    -0.661131210335E+02    0.44820E-08   -0.65226E-10  8824   0.179E-04
  24 F= -.66113121E+02 E0= -.66112715E+02  d E =-.210612E-03  mag=     0.0000
 curvature:  -1.32 expect dE=-0.212E-03 dE for cont linesearch -0.951E-07
 trial: gam= 0.25096 g(F)=  0.121E-03 g(S)=  0.392E-04 ort = 0.105E-04 (trialstep = 0.140E+01)
 search vector abs. value=  0.261E-03
 bond charge predicted
       N       E                     dE             d eps       ncg     rms          rms(c)
DAV:   1    -0.661055581664E+02    0.75629E-02   -0.18986E-01 23032   0.105E+01    0.186E-01
DAV:   2    -0.661132402337E+02   -0.76821E-02   -0.79362E-02 16832   0.134E+00    0.120E-01
DAV:   3    -0.661133880559E+02   -0.14782E-03   -0.28515E-03 19352   0.451E-01    0.114E-01
DAV:   4    -0.661133315661E+02    0.56490E-04   -0.27320E-04 19528   0.304E-01    0.802E-02
DAV:   5    -0.661132933941E+02    0.38172E-04   -0.97449E-05 19688   0.161E-01    0.472E-02
DAV:   6    -0.661133123083E+02   -0.18914E-04   -0.10995E-04 21968   0.199E-01    0.780E-02
DAV:   7    -0.661132684749E+02    0.43833E-04   -0.69101E-05 19952   0.169E-01    0.134E-02
DAV:   8    -0.661132690727E+02   -0.59781E-06   -0.15375E-05 22632   0.386E-02    0.117E-02
DAV:   9    -0.661132683858E+02    0.68695E-06   -0.24853E-06 18488   0.206E-02    0.240E-03
DAV:  10    -0.661132684675E+02   -0.81669E-07   -0.32957E-07 19928   0.760E-03    0.284E-03
DAV:  11    -0.661132684488E+02    0.18696E-07   -0.13510E-07 19664   0.657E-03    0.970E-04
DAV:  12    -0.661132684233E+02    0.25440E-07   -0.25530E-08 11776   0.230E-03    0.183E-04
DAV:  13    -0.661132684156E+02    0.76834E-08   -0.46979E-09  8800   0.632E-04
  25 F= -.66113268E+02 E0= -.66112846E+02  d E =-.147382E-03  mag=     0.0000
 trial-energy change:   -0.000147  1 .order   -0.000166   -0.000228   -0.000104
 step:   2.5789(harm=  2.5789)  dis= 0.00396  next Energy=   -66.113331 (dE=-0.210E-03)
 bond charge predicted
       N       E                     dE             d eps       ncg     rms          rms(c)
DAV:   1    -0.661078829416E+02    0.53855E-02   -0.13376E-01 23040   0.877E+00    0.157E-01
DAV:   2    -0.661132923619E+02   -0.54094E-02   -0.55883E-02 16840   0.113E+00    0.100E-01
DAV:   3    -0.661133964385E+02   -0.10408E-03   -0.20112E-03 19416   0.378E-01    0.958E-02
DAV:   4    -0.661133568864E+02    0.39552E-04   -0.19123E-04 19608   0.256E-01    0.674E-02
DAV:   5    -0.661133299749E+02    0.26912E-04   -0.68811E-05 19688   0.135E-01    0.396E-02
DAV:   6    -0.661133434105E+02   -0.13436E-04   -0.77660E-05 22000   0.167E-01    0.658E-02
DAV:   7    -0.661133124550E+02    0.30956E-04   -0.49049E-05 20544   0.142E-01    0.117E-02
DAV:   8    -0.661133127572E+02   -0.30222E-06   -0.10667E-05 22760   0.327E-02    0.954E-03
DAV:   9    -0.661133123080E+02    0.44917E-06   -0.17119E-06 18448   0.170E-02    0.201E-03
DAV:  10    -0.661133123722E+02   -0.64199E-07   -0.23180E-07 19784   0.642E-03    0.242E-03
DAV:  11    -0.661133123600E+02    0.12271E-07   -0.95688E-08 18888   0.553E-03    0.780E-04
DAV:  12    -0.661133123377E+02    0.22232E-07   -0.15911E-08  9520   0.186E-03    0.156E-04
DAV:  13    -0.661133123312E+02    0.65374E-08   -0.48321E-09  8760   0.569E-04
  26 F= -.66113312E+02 E0= -.66112877E+02  d E =-.191298E-03  mag=     0.0000
 curvature:  -2.07 expect dE=-0.556E-04 dE for cont linesearch -0.456E-10
 trial: gam= 0.22401 g(F)=  0.104E-04 g(S)=  0.165E-04 ort =-0.759E-07 (trialstep = 0.164E+01)
 search vector abs. value=  0.399E-04
 bond charge predicted
       N       E                     dE             d eps       ncg     rms          rms(c)
DAV:   1    -0.661126486604E+02    0.66368E-03   -0.20036E-02 23064   0.319E+00    0.123E-01
DAV:   2    -0.661134525000E+02   -0.80384E-03   -0.92913E-03 17960   0.570E-01    0.112E-01
DAV:   3    -0.661134511664E+02    0.13336E-05   -0.73081E-04 19720   0.383E-01    0.125E-01
DAV:   4    -0.661133772950E+02    0.73871E-04   -0.25786E-04 18992   0.266E-01    0.642E-02
DAV:   5    -0.661133487179E+02    0.28577E-04   -0.86600E-05 22416   0.130E-01    0.454E-02
DAV:   6    -0.661133414331E+02    0.72848E-05   -0.62588E-05 19496   0.134E-01    0.304E-02
DAV:   7    -0.661133359590E+02    0.54741E-05   -0.14879E-05 19888   0.590E-02    0.941E-03
DAV:   8    -0.661133354754E+02    0.48357E-06   -0.25364E-06 19848   0.238E-02    0.277E-03
DAV:   9    -0.661133355729E+02   -0.97523E-07   -0.65242E-07 18360   0.725E-03    0.146E-03
DAV:  10    -0.661133356075E+02   -0.34579E-07   -0.83335E-08 17680   0.414E-03    0.139E-03
DAV:  11    -0.661133356014E+02    0.61300E-08   -0.32345E-08 13024   0.340E-03
  27 F= -.66113336E+02 E0= -.66112902E+02  d E =-.232702E-04  mag=    -0.0000
 trial-energy change:   -0.000023  1 .order   -0.000023   -0.000044   -0.000002
 step:   1.7361(harm=  1.7361)  dis= 0.00086  next Energy=   -66.113336 (dE=-0.233E-04)
 bond charge predicted
       N       E                     dE             d eps       ncg     rms          rms(c)
DAV:   1    -0.661133332173E+02    0.23902E-05   -0.72534E-05 23072   0.192E-01    0.733E-03
DAV:   2    -0.661133359830E+02   -0.27657E-05   -0.33587E-05 17928   0.341E-02    0.663E-03
DAV:   3    -0.661133360757E+02   -0.92787E-07   -0.26114E-06 19768   0.230E-02    0.744E-03
DAV:   4    -0.661133358449E+02    0.23083E-06   -0.90262E-07 19072   0.160E-02    0.382E-03
DAV:   5    -0.661133357324E+02    0.11248E-06   -0.31410E-07 22352   0.785E-03    0.281E-03
DAV:   6    -0.661133356989E+02    0.33517E-07   -0.22473E-07 18656   0.794E-03    0.176E-03
DAV:   7    -0.661133356977E+02    0.12697E-08   -0.53946E-08 15952   0.354E-03
  28 F= -.66113336E+02 E0= -.66112902E+02  d E =-.233665E-04  mag=    -0.0000
 curvature:  -1.29 expect dE=-0.118E-04 dE for cont linesearch -0.780E-08
 trial: gam= 0.31702 g(F)=  0.388E-05 g(S)=  0.524E-05 ort = 0.491E-06 (trialstep = 0.166E+01)
 search vector abs. value=  0.134E-04
 bond charge predicted
       N       E                     dE             d eps       ncg     rms          rms(c)
DAV:   1    -0.661133511084E+02   -0.15409E-04   -0.79815E-03 19536   0.178E+00    0.180E-01
DAV:   2    -0.661139003277E+02   -0.54922E-03   -0.67608E-03 19152   0.647E-01    0.214E-01
DAV:   3    -0.661134339439E+02    0.46638E-03   -0.18186E-03 18768   0.462E-01    0.124E-01
DAV:   4    -0.661133634114E+02    0.70533E-04   -0.37802E-04 20304   0.260E-01    0.436E-02
DAV:   5    -0.661133523712E+02    0.11040E-04   -0.36248E-05 22632   0.852E-02    0.359E-02
DAV:   6    -0.661133463993E+02    0.59719E-05   -0.26301E-05 19416   0.996E-02    0.224E-02
DAV:   7    -0.661133439550E+02    0.24443E-05   -0.92090E-06 19768   0.484E-02    0.138E-02
DAV:   8    -0.661133426286E+02    0.13265E-05   -0.28370E-06 19216   0.307E-02    0.201E-03
DAV:   9    -0.661133424661E+02    0.16250E-06   -0.59803E-07 19424   0.589E-03    0.190E-03
DAV:  10    -0.661133424466E+02    0.19438E-07   -0.78987E-08 17696   0.446E-03    0.141E-03
DAV:  11    -0.661133424177E+02    0.28944E-07   -0.47602E-08 15928   0.286E-03    0.331E-04
DAV:  12    -0.661133423943E+02    0.23403E-07   -0.66179E-09  8952   0.694E-04    0.185E-04
DAV:  13    -0.661133423884E+02    0.58681E-08   -0.14640E-09  8720   0.311E-04
  29 F= -.66113342E+02 E0= -.66112920E+02  d E =-.669076E-05  mag=     0.0000
 trial-energy change:   -0.000007  1 .order   -0.000007   -0.000015    0.000001
 step:   1.5128(harm=  1.5294)  dis= 0.00049  next Energy=   -66.113342 (dE=-0.675E-05)
 bond charge predicted
       N       E                     dE             d eps       ncg     rms          rms(c)
DAV:   1    -0.661133426290E+02   -0.23471E-06   -0.60604E-05 19472   0.155E-01    0.157E-02
DAV:   2    -0.661133460563E+02   -0.34273E-05   -0.51321E-05 19160   0.563E-02    0.187E-02
DAV:   3    -0.661133429538E+02    0.31025E-05   -0.13793E-05 18760   0.401E-02    0.108E-02
DAV:   4    -0.661133424460E+02    0.50777E-06   -0.28443E-06 20264   0.226E-02    0.380E-03
DAV:   5    -0.661133424216E+02    0.24433E-07   -0.27215E-07 22648   0.738E-03    0.308E-03
DAV:   6    -0.661133424011E+02    0.20482E-07   -0.19856E-07 19368   0.861E-03    0.198E-03
DAV:   7    -0.661133424251E+02   -0.24043E-07   -0.70213E-08 18056   0.429E-03    0.122E-03
DAV:   8    -0.661133424184E+02    0.67230E-08   -0.20186E-08  9296   0.271E-03
  30 F= -.66113342E+02 E0= -.66112919E+02  d E =-.672077E-05  mag=     0.0000
 curvature:  -1.09 expect dE=-0.751E-05 dE for cont linesearch -0.166E-07
 trial: gam= 0.70092 g(F)=  0.108E-05 g(S)=  0.581E-05 ort = 0.453E-06 (trialstep = 0.155E+01)
 search vector abs. value=  0.141E-04
 reached required accuracy - stopping structural energy minimisation
 writing wavefunctions
