  12  12   0   0
  0.1482391E+02  0.9176300E-09  0.9176300E-09  0.2798773E-09  0.5000000E-15
  1.000000000000000E-004
  CAR 
 unknown system                          
     19.53740737    -58.91215092  301      8.50355141      1.00000000
    -58.912  0.0000E+00  0.0000E+00  0.0000E+00  0.0000E+00
    -58.651  0.0000E+00  0.0000E+00  0.0000E+00  0.0000E+00
    -58.389  0.0000E+00  0.0000E+00  0.0000E+00  0.0000E+00
    -58.128  0.0000E+00  0.0000E+00  0.0000E+00  0.0000E+00
    -57.866  0.0000E+00  0.0000E+00  0.0000E+00  0.0000E+00
    -57.605  0.0000E+00  0.0000E+00  0.0000E+00  0.0000E+00
    -57.343  0.0000E+00  0.0000E+00  0.0000E+00  0.0000E+00
    -57.082  0.0000E+00  0.0000E+00  0.0000E+00  0.0000E+00
    -56.820  0.0000E+00  0.0000E+00  0.0000E+00  0.0000E+00
    -56.559  0.0000E+00  0.0000E+00  0.0000E+00  0.0000E+00
    -56.297  0.0000E+00  0.0000E+00  0.0000E+00  0.0000E+00
    -56.036  0.0000E+00  0.0000E+00  0.0000E+00  0.0000E+00
    -55.774  0.0000E+00  0.0000E+00  0.0000E+00  0.0000E+00
    -55.513  0.0000E+00  0.0000E+00  0.0000E+00  0.0000E+00
    -55.251  0.4105E+02  0.4105E+02  0.5165E+01  0.5165E+01
    -54.990  0.0000E+00  0.0000E+00  0.6000E+01  0.6000E+01
    -54.728  0.0000E+00  0.0000E+00  0.6000E+01  0.6000E+01
    -54.467  0.0000E+00  0.0000E+00  0.6000E+01  0.6000E+01
    -54.205  0.0000E+00  0.0000E+00  0.6000E+01  0.6000E+01
    -53.944  0.0000E+00  0.0000E+00  0.6000E+01  0.6000E+01
    -53.682  0.0000E+00  0.0000E+00  0.6000E+01  0.6000E+01
    -53.421  0.0000E+00  0.0000E+00  0.6000E+01  0.6000E+01
    -53.159  0.0000E+00  0.0000E+00  0.6000E+01  0.6000E+01
    -52.898  0.0000E+00  0.0000E+00  0.6000E+01  0.6000E+01
    -52.636  0.0000E+00  0.0000E+00  0.6000E+01  0.6000E+01
    -52.375  0.0000E+00  0.0000E+00  0.6000E+01  0.6000E+01
    -52.113  0.0000E+00  0.0000E+00  0.6000E+01  0.6000E+01
    -51.852  0.0000E+00  0.0000E+00  0.6000E+01  0.6000E+01
    -51.590  0.0000E+00  0.0000E+00  0.6000E+01  0.6000E+01
    -51.329  0.0000E+00  0.0000E+00  0.6000E+01  0.6000E+01
    -51.067  0.0000E+00  0.0000E+00  0.6000E+01  0.6000E+01
    -50.806  0.0000E+00  0.0000E+00  0.6000E+01  0.6000E+01
    -50.544  0.0000E+00  0.0000E+00  0.6000E+01  0.6000E+01
    -50.283  0.0000E+00  0.0000E+00  0.6000E+01  0.6000E+01
    -50.021  0.0000E+00  0.0000E+00  0.6000E+01  0.6000E+01
    -49.760  0.0000E+00  0.0000E+00  0.6000E+01  0.6000E+01
    -49.498  0.0000E+00  0.0000E+00  0.6000E+01  0.6000E+01
    -49.237  0.0000E+00  0.0000E+00  0.6000E+01  0.6000E+01
    -48.975  0.0000E+00  0.0000E+00  0.6000E+01  0.6000E+01
    -48.714  0.0000E+00  0.0000E+00  0.6000E+01  0.6000E+01
    -48.452  0.0000E+00  0.0000E+00  0.6000E+01  0.6000E+01
    -48.191  0.0000E+00  0.0000E+00  0.6000E+01  0.6000E+01
    -47.929  0.0000E+00  0.0000E+00  0.6000E+01  0.6000E+01
    -47.668  0.0000E+00  0.0000E+00  0.6000E+01  0.6000E+01
    -47.406  0.0000E+00  0.0000E+00  0.6000E+01  0.6000E+01
    -47.145  0.0000E+00  0.0000E+00  0.6000E+01  0.6000E+01
    -46.883  0.0000E+00  0.0000E+00  0.6000E+01  0.6000E+01
    -46.622  0.0000E+00  0.0000E+00  0.6000E+01  0.6000E+01
    -46.360  0.0000E+00  0.0000E+00  0.6000E+01  0.6000E+01
    -46.099  0.0000E+00  0.0000E+00  0.6000E+01  0.6000E+01
    -45.837  0.0000E+00  0.0000E+00  0.6000E+01  0.6000E+01
    -45.576  0.0000E+00  0.0000E+00  0.6000E+01  0.6000E+01
    -45.314  0.0000E+00  0.0000E+00  0.6000E+01  0.6000E+01
    -45.053  0.0000E+00  0.0000E+00  0.6000E+01  0.6000E+01
    -44.791  0.0000E+00  0.0000E+00  0.6000E+01  0.6000E+01
    -44.530  0.0000E+00  0.0000E+00  0.6000E+01  0.6000E+01
    -44.268  0.0000E+00  0.0000E+00  0.6000E+01  0.6000E+01
    -44.007  0.0000E+00  0.0000E+00  0.6000E+01  0.6000E+01
    -43.745  0.0000E+00  0.0000E+00  0.6000E+01  0.6000E+01
    -43.484  0.0000E+00  0.0000E+00  0.6000E+01  0.6000E+01
    -43.222  0.0000E+00  0.0000E+00  0.6000E+01  0.6000E+01
    -42.961  0.0000E+00  0.0000E+00  0.6000E+01  0.6000E+01
    -42.699  0.0000E+00  0.0000E+00  0.6000E+01  0.6000E+01
    -42.438  0.0000E+00  0.0000E+00  0.6000E+01  0.6000E+01
    -42.176  0.0000E+00  0.0000E+00  0.6000E+01  0.6000E+01
    -41.915  0.0000E+00  0.0000E+00  0.6000E+01  0.6000E+01
    -41.653  0.0000E+00  0.0000E+00  0.6000E+01  0.6000E+01
    -41.392  0.0000E+00  0.0000E+00  0.6000E+01  0.6000E+01
    -41.130  0.0000E+00  0.0000E+00  0.6000E+01  0.6000E+01
    -40.869  0.0000E+00  0.0000E+00  0.6000E+01  0.6000E+01
    -40.607  0.0000E+00  0.0000E+00  0.6000E+01  0.6000E+01
    -40.346  0.0000E+00  0.0000E+00  0.6000E+01  0.6000E+01
    -40.084  0.0000E+00  0.0000E+00  0.6000E+01  0.6000E+01
    -39.823  0.0000E+00  0.0000E+00  0.6000E+01  0.6000E+01
    -39.561  0.0000E+00  0.0000E+00  0.6000E+01  0.6000E+01
    -39.300  0.0000E+00  0.0000E+00  0.6000E+01  0.6000E+01
    -39.038  0.0000E+00  0.0000E+00  0.6000E+01  0.6000E+01
    -38.777  0.0000E+00  0.0000E+00  0.6000E+01  0.6000E+01
    -38.515  0.0000E+00  0.0000E+00  0.6000E+01  0.6000E+01
    -38.254  0.0000E+00  0.0000E+00  0.6000E+01  0.6000E+01
    -37.992  0.0000E+00  0.0000E+00  0.6000E+01  0.6000E+01
    -37.731  0.0000E+00  0.0000E+00  0.6000E+01  0.6000E+01
    -37.469  0.0000E+00  0.0000E+00  0.6000E+01  0.6000E+01
    -37.208  0.0000E+00  0.0000E+00  0.6000E+01  0.6000E+01
    -36.946  0.0000E+00  0.0000E+00  0.6000E+01  0.6000E+01
    -36.685  0.0000E+00  0.0000E+00  0.6000E+01  0.6000E+01
    -36.423  0.0000E+00  0.0000E+00  0.6000E+01  0.6000E+01
    -36.162  0.0000E+00  0.0000E+00  0.6000E+01  0.6000E+01
    -35.900  0.0000E+00  0.0000E+00  0.6000E+01  0.6000E+01
    -35.639  0.0000E+00  0.0000E+00  0.6000E+01  0.6000E+01
    -35.377  0.0000E+00  0.0000E+00  0.6000E+01  0.6000E+01
    -35.116  0.0000E+00  0.0000E+00  0.6000E+01  0.6000E+01
    -34.854  0.0000E+00  0.0000E+00  0.6000E+01  0.6000E+01
    -34.593  0.0000E+00  0.0000E+00  0.6000E+01  0.6000E+01
    -34.331  0.0000E+00  0.0000E+00  0.6000E+01  0.6000E+01
    -34.070  0.0000E+00  0.0000E+00  0.6000E+01  0.6000E+01
    -33.808  0.0000E+00  0.0000E+00  0.6000E+01  0.6000E+01
    -33.547  0.0000E+00  0.0000E+00  0.6000E+01  0.6000E+01
    -33.285  0.0000E+00  0.0000E+00  0.6000E+01  0.6000E+01
    -33.024  0.0000E+00  0.0000E+00  0.6000E+01  0.6000E+01
    -32.762  0.0000E+00  0.0000E+00  0.6000E+01  0.6000E+01
    -32.501  0.0000E+00  0.0000E+00  0.6000E+01  0.6000E+01
    -32.239  0.0000E+00  0.0000E+00  0.6000E+01  0.6000E+01
    -31.978  0.0000E+00  0.0000E+00  0.6000E+01  0.6000E+01
    -31.716  0.0000E+00  0.0000E+00  0.6000E+01  0.6000E+01
    -31.455  0.0000E+00  0.0000E+00  0.6000E+01  0.6000E+01
    -31.193  0.0000E+00  0.0000E+00  0.6000E+01  0.6000E+01
    -30.932  0.0000E+00  0.0000E+00  0.6000E+01  0.6000E+01
    -30.670  0.0000E+00  0.0000E+00  0.6000E+01  0.6000E+01
    -30.409  0.0000E+00  0.0000E+00  0.6000E+01  0.6000E+01
    -30.147  0.0000E+00  0.0000E+00  0.6000E+01  0.6000E+01
    -29.886  0.0000E+00  0.0000E+00  0.6000E+01  0.6000E+01
    -29.624  0.0000E+00  0.0000E+00  0.6000E+01  0.6000E+01
    -29.363  0.0000E+00  0.0000E+00  0.6000E+01  0.6000E+01
    -29.101  0.0000E+00  0.0000E+00  0.6000E+01  0.6000E+01
    -28.840  0.0000E+00  0.0000E+00  0.6000E+01  0.6000E+01
    -28.578  0.0000E+00  0.0000E+00  0.6000E+01  0.6000E+01
    -28.317  0.0000E+00  0.0000E+00  0.6000E+01  0.6000E+01
    -28.055  0.0000E+00  0.0000E+00  0.6000E+01  0.6000E+01
    -27.794  0.0000E+00  0.0000E+00  0.6000E+01  0.6000E+01
    -27.532  0.0000E+00  0.0000E+00  0.6000E+01  0.6000E+01
    -27.271  0.0000E+00  0.0000E+00  0.6000E+01  0.6000E+01
    -27.009  0.0000E+00  0.0000E+00  0.6000E+01  0.6000E+01
    -26.748  0.0000E+00  0.0000E+00  0.6000E+01  0.6000E+01
    -26.486  0.0000E+00  0.0000E+00  0.6000E+01  0.6000E+01
    -26.225  0.0000E+00  0.0000E+00  0.6000E+01  0.6000E+01
    -25.963  0.0000E+00  0.0000E+00  0.6000E+01  0.6000E+01
    -25.702  0.0000E+00  0.0000E+00  0.6000E+01  0.6000E+01
    -25.440  0.0000E+00  0.0000E+00  0.6000E+01  0.6000E+01
    -25.179  0.0000E+00  0.0000E+00  0.6000E+01  0.6000E+01
    -24.917  0.0000E+00  0.0000E+00  0.6000E+01  0.6000E+01
    -24.656  0.0000E+00  0.0000E+00  0.6000E+01  0.6000E+01
    -24.394  0.0000E+00  0.0000E+00  0.6000E+01  0.6000E+01
    -24.133  0.0000E+00  0.0000E+00  0.6000E+01  0.6000E+01
    -23.871  0.0000E+00  0.0000E+00  0.6000E+01  0.6000E+01
    -23.610  0.0000E+00  0.0000E+00  0.6000E+01  0.6000E+01
    -23.348  0.0000E+00  0.0000E+00  0.6000E+01  0.6000E+01
    -23.087  0.0000E+00  0.0000E+00  0.6000E+01  0.6000E+01
    -22.825  0.0000E+00  0.0000E+00  0.6000E+01  0.6000E+01
    -22.564  0.0000E+00  0.0000E+00  0.6000E+01  0.6000E+01
    -22.302  0.0000E+00  0.0000E+00  0.6000E+01  0.6000E+01
    -22.041  0.0000E+00  0.0000E+00  0.6000E+01  0.6000E+01
    -21.779  0.0000E+00  0.0000E+00  0.6000E+01  0.6000E+01
    -21.518  0.0000E+00  0.0000E+00  0.6000E+01  0.6000E+01
    -21.256  0.0000E+00  0.0000E+00  0.6000E+01  0.6000E+01
    -20.995  0.0000E+00  0.0000E+00  0.6000E+01  0.6000E+01
    -20.733  0.0000E+00  0.0000E+00  0.6000E+01  0.6000E+01
    -20.472  0.0000E+00  0.0000E+00  0.6000E+01  0.6000E+01
    -20.210  0.0000E+00  0.0000E+00  0.6000E+01  0.6000E+01
    -19.949  0.0000E+00  0.0000E+00  0.6000E+01  0.6000E+01
    -19.687  0.0000E+00  0.0000E+00  0.6000E+01  0.6000E+01
    -19.426  0.0000E+00  0.0000E+00  0.6000E+01  0.6000E+01
    -19.164  0.0000E+00  0.0000E+00  0.6000E+01  0.6000E+01
    -18.903  0.0000E+00  0.0000E+00  0.6000E+01  0.6000E+01
    -18.641  0.0000E+00  0.0000E+00  0.6000E+01  0.6000E+01
    -18.380  0.0000E+00  0.0000E+00  0.6000E+01  0.6000E+01
    -18.118  0.0000E+00  0.0000E+00  0.6000E+01  0.6000E+01
    -17.857  0.0000E+00  0.0000E+00  0.6000E+01  0.6000E+01
    -17.595  0.0000E+00  0.0000E+00  0.6000E+01  0.6000E+01
    -17.334  0.0000E+00  0.0000E+00  0.6000E+01  0.6000E+01
    -17.072  0.0000E+00  0.0000E+00  0.6000E+01  0.6000E+01
    -16.811  0.0000E+00  0.0000E+00  0.6000E+01  0.6000E+01
    -16.549  0.0000E+00  0.0000E+00  0.6000E+01  0.6000E+01
    -16.288  0.0000E+00  0.0000E+00  0.6000E+01  0.6000E+01
    -16.026  0.0000E+00  0.0000E+00  0.6000E+01  0.6000E+01
    -15.765  0.0000E+00  0.0000E+00  0.6000E+01  0.6000E+01
    -15.503  0.0000E+00  0.0000E+00  0.6000E+01  0.6000E+01
    -15.242  0.0000E+00  0.0000E+00  0.6000E+01  0.6000E+01
    -14.980  0.0000E+00  0.0000E+00  0.6000E+01  0.6000E+01
    -14.719  0.0000E+00  0.0000E+00  0.6000E+01  0.6000E+01
    -14.457  0.0000E+00  0.0000E+00  0.6000E+01  0.6000E+01
    -14.196  0.0000E+00  0.0000E+00  0.6000E+01  0.6000E+01
    -13.934  0.0000E+00  0.0000E+00  0.6000E+01  0.6000E+01
    -13.673  0.0000E+00  0.0000E+00  0.6000E+01  0.6000E+01
    -13.411  0.0000E+00  0.0000E+00  0.6000E+01  0.6000E+01
    -13.150  0.0000E+00  0.0000E+00  0.6000E+01  0.6000E+01
    -12.888  0.0000E+00  0.0000E+00  0.6000E+01  0.6000E+01
    -12.627  0.0000E+00  0.0000E+00  0.6000E+01  0.6000E+01
    -12.365  0.0000E+00  0.0000E+00  0.6000E+01  0.6000E+01
    -12.104  0.0000E+00  0.0000E+00  0.6000E+01  0.6000E+01
    -11.842  0.0000E+00  0.0000E+00  0.6000E+01  0.6000E+01
    -11.581  0.0000E+00  0.0000E+00  0.6000E+01  0.6000E+01
    -11.319  0.0000E+00  0.0000E+00  0.6000E+01  0.6000E+01
    -11.058  0.0000E+00  0.0000E+00  0.6000E+01  0.6000E+01
    -10.796  0.0000E+00  0.0000E+00  0.6000E+01  0.6000E+01
    -10.535  0.0000E+00  0.0000E+00  0.6000E+01  0.6000E+01
    -10.273  0.0000E+00  0.0000E+00  0.6000E+01  0.6000E+01
    -10.012  0.0000E+00  0.0000E+00  0.6000E+01  0.6000E+01
     -9.750  0.0000E+00  0.0000E+00  0.6000E+01  0.6000E+01
     -9.489  0.0000E+00  0.0000E+00  0.6000E+01  0.6000E+01
     -9.227  0.0000E+00  0.0000E+00  0.6000E+01  0.6000E+01
     -8.966  0.0000E+00  0.0000E+00  0.6000E+01  0.6000E+01
     -8.704  0.0000E+00  0.0000E+00  0.6000E+01  0.6000E+01
     -8.443  0.0000E+00  0.0000E+00  0.6000E+01  0.6000E+01
     -8.181  0.0000E+00  0.0000E+00  0.6000E+01  0.6000E+01
     -7.920  0.0000E+00  0.0000E+00  0.6000E+01  0.6000E+01
     -7.658  0.0000E+00  0.0000E+00  0.6000E+01  0.6000E+01
     -7.397  0.0000E+00  0.0000E+00  0.6000E+01  0.6000E+01
     -7.135  0.0000E+00  0.0000E+00  0.6000E+01  0.6000E+01
     -6.874  0.0000E+00  0.0000E+00  0.6000E+01  0.6000E+01
     -6.612  0.0000E+00  0.0000E+00  0.6000E+01  0.6000E+01
     -6.351  0.0000E+00  0.0000E+00  0.6000E+01  0.6000E+01
     -6.089  0.0000E+00  0.0000E+00  0.6000E+01  0.6000E+01
     -5.828  0.0000E+00  0.0000E+00  0.6000E+01  0.6000E+01
     -5.566  0.0000E+00  0.0000E+00  0.6000E+01  0.6000E+01
     -5.305  0.0000E+00  0.0000E+00  0.6000E+01  0.6000E+01
     -5.043  0.0000E+00  0.0000E+00  0.6000E+01  0.6000E+01
     -4.782  0.0000E+00  0.0000E+00  0.6000E+01  0.6000E+01
     -4.520  0.0000E+00  0.0000E+00  0.6000E+01  0.6000E+01
     -4.259  0.0000E+00  0.0000E+00  0.6000E+01  0.6000E+01
     -3.997  0.0000E+00  0.0000E+00  0.6000E+01  0.6000E+01
     -3.736  0.0000E+00  0.0000E+00  0.6000E+01  0.6000E+01
     -3.474  0.0000E+00  0.0000E+00  0.6000E+01  0.6000E+01
     -3.213  0.0000E+00  0.0000E+00  0.6000E+01  0.6000E+01
     -2.951  0.0000E+00  0.0000E+00  0.6000E+01  0.6000E+01
     -2.690  0.4598E-01  0.4598E-01  0.6002E+01  0.6002E+01
     -2.428  0.4890E+00  0.4890E+00  0.6066E+01  0.6066E+01
     -2.167  0.5280E+00  0.5280E+00  0.6223E+01  0.6223E+01
     -1.905  0.3449E+00  0.3449E+00  0.6327E+01  0.6327E+01
     -1.644  0.6297E+00  0.6297E+00  0.6441E+01  0.6441E+01
     -1.382  0.7613E+00  0.7613E+00  0.6629E+01  0.6629E+01
     -1.121  0.8201E+00  0.8201E+00  0.6826E+01  0.6826E+01
     -0.859  0.8918E+00  0.8918E+00  0.7056E+01  0.7056E+01
     -0.598  0.8727E+00  0.8727E+00  0.7280E+01  0.7280E+01
     -0.336  0.1040E+01  0.1040E+01  0.7537E+01  0.7537E+01
     -0.075  0.1093E+01  0.1093E+01  0.7813E+01  0.7813E+01
      0.187  0.9912E+00  0.9912E+00  0.8092E+01  0.8092E+01
      0.448  0.1403E+01  0.1403E+01  0.8372E+01  0.8372E+01
      0.710  0.1219E+01  0.1219E+01  0.8727E+01  0.8727E+01
      0.971  0.1225E+01  0.1225E+01  0.9048E+01  0.9048E+01
      1.233  0.1219E+01  0.1219E+01  0.9360E+01  0.9360E+01
      1.494  0.1380E+01  0.1380E+01  0.9697E+01  0.9697E+01
      1.756  0.1681E+01  0.1681E+01  0.1009E+02  0.1009E+02
      2.017  0.1594E+01  0.1594E+01  0.1055E+02  0.1055E+02
      2.279  0.1441E+01  0.1441E+01  0.1098E+02  0.1098E+02
      2.540  0.1695E+01  0.1695E+01  0.1140E+02  0.1140E+02
      2.802  0.1627E+01  0.1627E+01  0.1185E+02  0.1185E+02
      3.063  0.1640E+01  0.1640E+01  0.1227E+02  0.1227E+02
      3.324  0.1539E+01  0.1539E+01  0.1271E+02  0.1271E+02
      3.586  0.1678E+01  0.1678E+01  0.1313E+02  0.1313E+02
      3.847  0.2598E+01  0.2598E+01  0.1369E+02  0.1369E+02
      4.109  0.2336E+01  0.2336E+01  0.1440E+02  0.1440E+02
      4.370  0.2347E+01  0.2347E+01  0.1497E+02  0.1497E+02
      4.632  0.2965E+01  0.2965E+01  0.1563E+02  0.1563E+02
      4.893  0.2944E+01  0.2944E+01  0.1648E+02  0.1648E+02
      5.155  0.3616E+01  0.3616E+01  0.1717E+02  0.1717E+02
      5.416  0.3416E+01  0.3416E+01  0.1817E+02  0.1817E+02
      5.678  0.4883E+01  0.4883E+01  0.1947E+02  0.1947E+02
      5.939  0.8116E+01  0.8116E+01  0.2100E+02  0.2100E+02
      6.201  0.6360E+01  0.6360E+01  0.2258E+02  0.2258E+02
      6.462  0.5407E+01  0.5407E+01  0.2411E+02  0.2411E+02
      6.724  0.6809E+01  0.6809E+01  0.2613E+02  0.2613E+02
      6.985  0.2914E+01  0.2914E+01  0.2704E+02  0.2704E+02
      7.247  0.4481E+01  0.4481E+01  0.2781E+02  0.2781E+02
      7.508  0.2497E+01  0.2497E+01  0.2848E+02  0.2848E+02
      7.770  0.3081E+01  0.3081E+01  0.2928E+02  0.2928E+02
      8.031  0.2282E+01  0.2282E+01  0.3001E+02  0.3001E+02
      8.293  0.2253E+01  0.2253E+01  0.3057E+02  0.3057E+02
      8.554  0.1847E+01  0.1847E+01  0.3109E+02  0.3109E+02
      8.816  0.2320E+01  0.2320E+01  0.3164E+02  0.3164E+02
      9.077  0.2476E+01  0.2476E+01  0.3226E+02  0.3226E+02
      9.339  0.2302E+01  0.2302E+01  0.3296E+02  0.3296E+02
      9.600  0.2110E+01  0.2110E+01  0.3350E+02  0.3350E+02
      9.862  0.2194E+01  0.2194E+01  0.3407E+02  0.3407E+02
     10.123  0.2610E+01  0.2610E+01  0.3476E+02  0.3476E+02
     10.385  0.2117E+01  0.2117E+01  0.3537E+02  0.3537E+02
     10.646  0.2424E+01  0.2424E+01  0.3597E+02  0.3597E+02
     10.908  0.2767E+01  0.2767E+01  0.3664E+02  0.3664E+02
     11.169  0.2848E+01  0.2848E+01  0.3738E+02  0.3738E+02
     11.431  0.2692E+01  0.2692E+01  0.3809E+02  0.3809E+02
     11.692  0.2428E+01  0.2428E+01  0.3873E+02  0.3873E+02
     11.954  0.2523E+01  0.2523E+01  0.3944E+02  0.3944E+02
     12.215  0.2635E+01  0.2635E+01  0.4013E+02  0.4013E+02
     12.477  0.2196E+01  0.2196E+01  0.4082E+02  0.4082E+02
     12.738  0.1674E+01  0.1674E+01  0.4129E+02  0.4129E+02
     13.000  0.1481E+01  0.1481E+01  0.4172E+02  0.4172E+02
     13.261  0.1316E+01  0.1316E+01  0.4209E+02  0.4209E+02
     13.523  0.1117E+01  0.1117E+01  0.4241E+02  0.4241E+02
     13.784  0.1068E+01  0.1068E+01  0.4269E+02  0.4269E+02
     14.046  0.9468E+00  0.9468E+00  0.4296E+02  0.4296E+02
     14.307  0.8892E+00  0.8892E+00  0.4319E+02  0.4319E+02
     14.569  0.7954E+00  0.7954E+00  0.4342E+02  0.4342E+02
     14.830  0.6768E+00  0.6768E+00  0.4361E+02  0.4361E+02
     15.092  0.5576E+00  0.5576E+00  0.4377E+02  0.4377E+02
     15.353  0.3656E+00  0.3656E+00  0.4389E+02  0.4389E+02
     15.615  0.1931E+00  0.1931E+00  0.4397E+02  0.4397E+02
     15.876  0.2794E-01  0.2794E-01  0.4400E+02  0.4400E+02
     16.138  0.0000E+00  0.0000E+00  0.4400E+02  0.4400E+02
     16.399  0.0000E+00  0.0000E+00  0.4400E+02  0.4400E+02
     16.661  0.0000E+00  0.0000E+00  0.4400E+02  0.4400E+02
     16.922  0.0000E+00  0.0000E+00  0.4400E+02  0.4400E+02
     17.184  0.0000E+00  0.0000E+00  0.4400E+02  0.4400E+02
     17.445  0.0000E+00  0.0000E+00  0.4400E+02  0.4400E+02
     17.707  0.0000E+00  0.0000E+00  0.4400E+02  0.4400E+02
     17.968  0.0000E+00  0.0000E+00  0.4400E+02  0.4400E+02
     18.230  0.0000E+00  0.0000E+00  0.4400E+02  0.4400E+02
     18.491  0.0000E+00  0.0000E+00  0.4400E+02  0.4400E+02
     18.753  0.0000E+00  0.0000E+00  0.4400E+02  0.4400E+02
     19.014  0.0000E+00  0.0000E+00  0.4400E+02  0.4400E+02
     19.276  0.0000E+00  0.0000E+00  0.4400E+02  0.4400E+02
     19.537  0.0000E+00  0.0000E+00  0.4400E+02  0.4400E+02
