       N       E                     dE             d eps       ncg     rms          rms(c)
DAV:   1     0.403721864036E+03    0.40372E+03   -0.30041E+04  4952   0.123E+03
DAV:   2    -0.209840544969E+02   -0.42471E+03   -0.40240E+03  4372   0.336E+02
DAV:   3    -0.488826168946E+02   -0.27899E+02   -0.25599E+02  5248   0.891E+01
DAV:   4    -0.499054248335E+02   -0.10228E+01   -0.10107E+01  5088   0.176E+01
DAV:   5    -0.499371287183E+02   -0.31704E-01   -0.31643E-01  5288   0.338E+00    0.412E+01
DAV:   6    -0.114481037028E+03   -0.64544E+02   -0.51915E+02  5456   0.275E+02    0.565E+01
DAV:   7    -0.530618306714E+02    0.61419E+02   -0.18440E+02  5204   0.116E+02    0.252E+01
DAV:   8    -0.426390676533E+02    0.10423E+02   -0.27598E+01  5832   0.763E+01    0.554E+00
DAV:   9    -0.433346988181E+02   -0.69563E+00   -0.64250E+00  6048   0.184E+01    0.671E+00
DAV:  10    -0.430886711276E+02    0.24603E+00   -0.18424E+00  5564   0.167E+01    0.263E+00
DAV:  11    -0.430633148697E+02    0.25356E-01   -0.19834E-01  5500   0.634E+00    0.981E-01
DAV:  12    -0.430674024627E+02   -0.40876E-02   -0.19111E-02  5248   0.746E-01    0.789E-01
DAV:  13    -0.430646597247E+02    0.27427E-02   -0.33510E-03  5852   0.584E-01    0.481E-01
DAV:  14    -0.430627366251E+02    0.19231E-02   -0.51732E-03  5988   0.845E-01    0.376E-02
DAV:  15    -0.430627788485E+02   -0.42223E-04   -0.40872E-04  4820   0.116E-01    0.217E-02
DAV:  16    -0.430628047368E+02   -0.25888E-04   -0.39609E-05  6584   0.740E-02    0.498E-02
DAV:  17    -0.430627840639E+02    0.20673E-04   -0.30749E-05  5808   0.741E-02    0.146E-02
DAV:  18    -0.430627825871E+02    0.14768E-05   -0.53426E-06  6132   0.161E-02    0.535E-03
DAV:  19    -0.430627822824E+02    0.30465E-06   -0.60085E-07  6328   0.811E-03    0.111E-03
DAV:  20    -0.430627823076E+02   -0.25162E-07   -0.11327E-07  5780   0.227E-03    0.282E-04
DAV:  21    -0.430627823281E+02   -0.20497E-07   -0.80029E-09  2740   0.656E-04    0.101E-04
DAV:  22    -0.430627823377E+02   -0.95733E-08   -0.14523E-09  2468   0.272E-04
   1 F= -.43062782E+02 E0= -.43061973E+02  d E =-.430628E+02  mag=    -0.0000
       N       E                     dE             d eps       ncg     rms          rms(c)
DAV:   1    -0.303858788048E+03   -0.26080E+03   -0.54369E+03  4296   0.841E+02    0.115E+02
DAV:   2    -0.647012129655E+02    0.23916E+03   -0.14389E+03  4376   0.239E+02    0.165E+01
DAV:   3    -0.722404064139E+02   -0.75392E+01   -0.11370E+02  4908   0.964E+01    0.388E+01
DAV:   4    -0.533070609361E+02    0.18933E+02   -0.10559E+02  5648   0.951E+01    0.316E+01
DAV:   5    -0.502728090115E+02    0.30343E+01   -0.48699E+01  5288   0.512E+01    0.151E+01
DAV:   6    -0.498841480690E+02    0.38866E+00   -0.32213E+00  4532   0.838E+00    0.156E+01
DAV:   7    -0.476139705762E+02    0.22702E+01   -0.17038E+00  5608   0.148E+01    0.914E+00
DAV:   8    -0.467454394375E+02    0.86853E+00   -0.13946E+00  6080   0.105E+01    0.222E+00
DAV:   9    -0.467288628131E+02    0.16577E-01   -0.17258E-01  5260   0.191E+00    0.895E-01
DAV:  10    -0.467274583634E+02    0.14044E-02   -0.60476E-03  5108   0.357E-01    0.743E-01
DAV:  11    -0.467216115608E+02    0.58468E-02   -0.11343E-02  6272   0.860E-01    0.554E-02
DAV:  12    -0.467218539234E+02   -0.24236E-03   -0.14012E-03  4768   0.261E-01    0.103E-01
DAV:  13    -0.467217858067E+02    0.68117E-04   -0.32808E-04  5904   0.170E-01    0.509E-02
DAV:  14    -0.467217764028E+02    0.94039E-05   -0.10852E-04  5776   0.978E-02    0.308E-02
DAV:  15    -0.467217683510E+02    0.80518E-05   -0.13383E-05  5928   0.343E-02    0.283E-03
DAV:  16    -0.467217683652E+02   -0.14219E-07   -0.14659E-06  5032   0.506E-03    0.114E-03
DAV:  17    -0.467217682875E+02    0.77684E-07   -0.30431E-08  4320   0.106E-03    0.411E-04
DAV:  18    -0.467217682886E+02   -0.10987E-08   -0.87313E-09  2512   0.907E-04
   2 F= -.46721768E+02 E0= -.46721853E+02  d E =-.365899E+01  mag=     0.0000
       N       E                     dE             d eps       ncg     rms          rms(c)
DAV:   1    -0.232939511855E+03   -0.18622E+03   -0.14578E+03  5528   0.349E+02    0.123E+02
DAV:   2    -0.406663442871E+03   -0.17372E+03   -0.56166E+03  7544   0.358E+02    0.124E+02
DAV:   3    -0.840027354983E+02    0.32266E+03   -0.18929E+03  5892   0.235E+02    0.375E+01
DAV:   4    -0.671738986516E+02    0.16829E+02   -0.18522E+02  4924   0.776E+01    0.234E+01
DAV:   5    -0.511255503108E+02    0.16048E+02   -0.37795E+01  6080   0.625E+01    0.699E+00
DAV:   6    -0.541447264949E+02   -0.30192E+01   -0.23649E+01  6024   0.341E+01    0.255E+01
DAV:   7    -0.507157654576E+02    0.34290E+01   -0.12075E+01  5712   0.266E+01    0.241E+00
DAV:   8    -0.507669055151E+02   -0.51140E-01   -0.71782E-01  5280   0.481E+00    0.409E+00
DAV:   9    -0.507789974931E+02   -0.12092E-01   -0.11380E-01  5016   0.235E+00    0.409E+00
DAV:  10    -0.506293212894E+02    0.14968E+00   -0.32453E-01  5616   0.676E+00    0.419E-01
DAV:  11    -0.506298038231E+02   -0.48253E-03   -0.29805E-02  4772   0.773E-01    0.229E-01
DAV:  12    -0.506317314976E+02   -0.19277E-02   -0.11934E-03  5060   0.238E-01    0.255E-01
DAV:  13    -0.506349882423E+02   -0.32567E-02   -0.26646E-02  5528   0.133E+00    0.921E-01
DAV:  14    -0.506312214023E+02    0.37668E-02   -0.22100E-03  5632   0.514E-01    0.653E-01
DAV:  15    -0.506278900299E+02    0.33314E-02   -0.30548E-03  6128   0.561E-01    0.277E-01
DAV:  16    -0.506273478008E+02    0.54223E-03   -0.11765E-03  6168   0.259E-01    0.912E-02
DAV:  17    -0.506272874206E+02    0.60380E-04   -0.32156E-04  6116   0.193E-01    0.443E-02
DAV:  18    -0.506272766572E+02    0.10763E-04   -0.53862E-05  5380   0.657E-02    0.155E-02
DAV:  19    -0.506272761374E+02    0.51987E-06   -0.40601E-06  6100   0.159E-02    0.605E-03
DAV:  20    -0.506272762503E+02   -0.11298E-06   -0.68378E-07  5724   0.495E-03    0.283E-03
DAV:  21    -0.506272763370E+02   -0.86693E-07   -0.19734E-07  5640   0.449E-03    0.737E-04
DAV:  22    -0.506272763089E+02    0.28119E-07   -0.47566E-08  4448   0.180E-03    0.367E-04
DAV:  23    -0.506272762987E+02    0.10267E-07   -0.72241E-09  2488   0.441E-04    0.279E-04
DAV:  24    -0.506272763000E+02   -0.13506E-08   -0.23214E-09  2348   0.308E-04
   3 F= -.50627276E+02 E0= -.50626995E+02  d E =-.756449E+01  mag=    -0.0000
       N       E                     dE             d eps       ncg     rms          rms(c)
DAV:   1    -0.507193596158E+02   -0.92083E-01   -0.57837E-01  5148   0.839E+00    0.369E+00
DAV:   2    -0.515887198478E+02   -0.86936E+00   -0.41055E+00  5528   0.236E+01    0.952E+00
DAV:   3    -0.506190778503E+02    0.96964E+00   -0.21096E+00  5600   0.195E+01    0.562E-01
DAV:   4    -0.506328538261E+02   -0.13776E-01   -0.19607E-01  4984   0.195E+00    0.669E-01
DAV:   5    -0.506302864378E+02    0.25674E-02   -0.60610E-03  5516   0.709E-01    0.208E-01
DAV:   6    -0.506300033170E+02    0.28312E-03   -0.12115E-03  5940   0.323E-01    0.246E-02
DAV:   7    -0.506300040696E+02   -0.75261E-06   -0.61285E-05  4808   0.599E-02    0.598E-03
DAV:   8    -0.506300038897E+02    0.17992E-06   -0.25556E-06  5164   0.987E-03    0.143E-03
DAV:   9    -0.506300037240E+02    0.16568E-06   -0.35340E-07  5076   0.480E-03    0.631E-04
DAV:  10    -0.506300035743E+02    0.14975E-06   -0.64299E-08  4908   0.231E-03    0.723E-04
DAV:  11    -0.506300035496E+02    0.24663E-07   -0.95039E-09  2516   0.121E-03    0.778E-05
DAV:  12    -0.506300035446E+02    0.50250E-08   -0.29828E-09  2392   0.235E-04
   4 F= -.50630004E+02 E0= -.50629752E+02  d E =-.756722E+01  mag=     0.0000
       N       E                     dE             d eps       ncg     rms          rms(c)
DAV:   1    -0.506398164354E+02   -0.98129E-02   -0.64398E-02  5116   0.281E+00    0.120E+00
DAV:   2    -0.507368463649E+02   -0.97030E-01   -0.43466E-01  5568   0.770E+00    0.350E+00
DAV:   3    -0.506291738983E+02    0.10767E+00   -0.24618E-01  5568   0.629E+00    0.113E-01
DAV:   4    -0.506302832267E+02   -0.11093E-02   -0.13618E-02  4464   0.434E-01    0.181E-01
DAV:   5    -0.506300696402E+02    0.21359E-03   -0.44528E-04  5828   0.206E-01    0.337E-02
DAV:   6    -0.506300649176E+02    0.47226E-05   -0.51891E-05  6096   0.492E-02    0.798E-03
DAV:   7    -0.506300642939E+02    0.62377E-06   -0.36116E-06  4756   0.168E-02    0.113E-03
DAV:   8    -0.506300642218E+02    0.72103E-07   -0.11638E-07  4856   0.238E-03    0.497E-04
DAV:   9    -0.506300641253E+02    0.96485E-07   -0.77277E-09  2752   0.596E-04    0.805E-05
DAV:  10    -0.506300641075E+02    0.17821E-07   -0.29273E-09  2432   0.411E-04    0.584E-05
DAV:  11    -0.506300641068E+02    0.66757E-09   -0.64510E-10  2364   0.205E-04
   5 F= -.50630064E+02 E0= -.50629822E+02  d E =-.756728E+01  mag=     0.0000
       N       E                     dE             d eps       ncg     rms          rms(c)
DAV:   1    -0.506557781164E+02   -0.25714E-01   -0.63604E+00  4520   0.648E+01    0.298E+00
DAV:   2    -0.513158488033E+02   -0.66007E+00   -0.38284E+00  5968   0.192E+01    0.678E+00
DAV:   3    -0.508183158360E+02    0.49753E+00   -0.13052E+00  5488   0.154E+01    0.657E-01
DAV:   4    -0.508219116439E+02   -0.35958E-02   -0.88637E-02  4944   0.130E+00    0.570E-01
DAV:   5    -0.508205906128E+02    0.13210E-02   -0.22899E-02  5288   0.150E+00    0.359E-01
DAV:   6    -0.508194888253E+02    0.11018E-02   -0.31458E-03  5376   0.591E-01    0.697E-02
DAV:   7    -0.508194412011E+02    0.47624E-04   -0.40438E-04  4912   0.106E-01    0.196E-02
DAV:   8    -0.508194412066E+02   -0.54852E-08   -0.52721E-05  5592   0.685E-02    0.164E-02
DAV:   9    -0.508194397700E+02    0.14366E-05   -0.11705E-05  5812   0.429E-02    0.738E-03
DAV:  10    -0.508194392429E+02    0.52715E-06   -0.13817E-06  5552   0.142E-02    0.646E-04
DAV:  11    -0.508194392280E+02    0.14839E-07   -0.80527E-08  4776   0.211E-03    0.168E-04
DAV:  12    -0.508194392245E+02    0.35316E-08   -0.38108E-09  2488   0.384E-04
   6 F= -.50819439E+02 E0= -.50819167E+02  d E =-.189375E+00  mag=    -0.0000
       N       E                     dE             d eps       ncg     rms          rms(c)
DAV:   1    -0.498754018510E+02    0.94404E+00   -0.59301E+01  5248   0.193E+02    0.978E+00
DAV:   2    -0.555237177709E+02   -0.56483E+01   -0.39266E+01  5872   0.654E+01    0.175E+01
DAV:   3    -0.510373663511E+02    0.44864E+01   -0.11816E+01  5616   0.494E+01    0.215E+00
DAV:   4    -0.511118421321E+02   -0.74476E-01   -0.17765E+00  5904   0.733E+00    0.228E+00
DAV:   5    -0.511049622243E+02    0.68799E-02   -0.38528E-01  5608   0.724E+00    0.171E+00
DAV:   6    -0.510785770110E+02    0.26385E-01   -0.43730E-02  5648   0.265E+00    0.540E-01
DAV:   7    -0.510765736262E+02    0.20034E-02   -0.96630E-03  5928   0.669E-01    0.169E-01
DAV:   8    -0.510763249115E+02    0.24871E-03   -0.10831E-03  6128   0.331E-01    0.261E-02
DAV:   9    -0.510763320839E+02   -0.71724E-05   -0.10548E-04  5048   0.850E-02    0.657E-03
DAV:  10    -0.510763322488E+02   -0.16489E-06   -0.33633E-06  5280   0.123E-02    0.158E-03
DAV:  11    -0.510763322678E+02   -0.19019E-07   -0.59642E-07  6440   0.554E-03    0.219E-03
DAV:  12    -0.510763322450E+02    0.22839E-07   -0.11369E-07  5648   0.359E-03    0.703E-04
DAV:  13    -0.510763322436E+02    0.13206E-08   -0.16495E-08  2736   0.976E-04
   7 F= -.51076332E+02 E0= -.51076241E+02  d E =-.446268E+00  mag=     0.0000
       N       E                     dE             d eps       ncg     rms          rms(c)
DAV:   1    -0.518881593939E+02   -0.81183E+00   -0.25342E+01  5400   0.112E+02    0.116E+01
DAV:   2    -0.598832467431E+02   -0.79951E+01   -0.42766E+01  5744   0.780E+01    0.392E+01
DAV:   3    -0.514464988161E+02    0.84367E+01   -0.33548E+01  5784   0.507E+01    0.648E+00
DAV:   4    -0.512213504669E+02    0.22515E+00   -0.17354E+00  5520   0.122E+01    0.197E+00
DAV:   5    -0.511929126904E+02    0.28438E-01   -0.83735E-02  6176   0.178E+00    0.972E-01
DAV:   6    -0.511838845814E+02    0.90281E-02   -0.13327E-02  6480   0.118E+00    0.220E-01
DAV:   7    -0.511836928896E+02    0.19169E-03   -0.29846E-03  5440   0.327E-01    0.446E-02
DAV:   8    -0.511836933900E+02   -0.50048E-06   -0.14489E-04  4944   0.114E-01    0.430E-02
DAV:   9    -0.511836853046E+02    0.80855E-05   -0.38149E-05  6032   0.688E-02    0.444E-03
DAV:  10    -0.511836857401E+02   -0.43551E-06   -0.28311E-06  4720   0.964E-03    0.318E-03
DAV:  11    -0.511836857160E+02    0.24032E-07   -0.26291E-07  5472   0.431E-03    0.907E-04
DAV:  12    -0.511836856809E+02    0.35140E-07   -0.39678E-08  4968   0.139E-03    0.237E-04
DAV:  13    -0.511836856780E+02    0.29222E-08   -0.63782E-09  2456   0.552E-04
   8 F= -.51183686E+02 E0= -.51184177E+02  d E =-.107353E+00  mag=    -0.0000
       N       E                     dE             d eps       ncg     rms          rms(c)
DAV:   1    -0.512616714283E+02   -0.77986E-01   -0.21583E+00  5232   0.340E+01    0.393E+00
DAV:   2    -0.522052274156E+02   -0.94356E+00   -0.45884E+00  5712   0.264E+01    0.122E+01
DAV:   3    -0.511979421582E+02    0.10073E+01   -0.29999E+00  5600   0.200E+01    0.143E+00
DAV:   4    -0.511918094829E+02    0.61327E-02   -0.13051E-01  4840   0.264E+00    0.546E-01
DAV:   5    -0.511900632615E+02    0.17462E-02   -0.14543E-02  6096   0.109E+00    0.155E-01
DAV:   6    -0.511898260142E+02    0.23725E-03   -0.12276E-03  5240   0.347E-01    0.398E-02
DAV:   7    -0.511898068077E+02    0.19206E-04   -0.13667E-04  4960   0.717E-02    0.257E-02
DAV:   8    -0.511898041323E+02    0.26754E-05   -0.19466E-05  5544   0.395E-02    0.478E-03
DAV:   9    -0.511898047476E+02   -0.61531E-06   -0.14024E-06  5588   0.820E-03    0.307E-03
DAV:  10    -0.511898048078E+02   -0.60223E-07   -0.20093E-07  5472   0.423E-03    0.102E-03
DAV:  11    -0.511898048514E+02   -0.43628E-07   -0.21499E-08  3128   0.989E-04    0.418E-04
DAV:  12    -0.511898048607E+02   -0.93032E-08   -0.83463E-09  2488   0.469E-04
   9 F= -.51189805E+02 E0= -.51190238E+02  d E =-.113473E+00  mag=     0.0000
       N       E                     dE             d eps       ncg     rms          rms(c)
DAV:   1    -0.510509267280E+02    0.13888E+00   -0.10151E+01  5816   0.849E+01    0.446E+00
DAV:   2    -0.523030911111E+02   -0.12522E+01   -0.80738E+00  5904   0.302E+01    0.948E+00
DAV:   3    -0.512326516954E+02    0.10704E+01   -0.28942E+00  5672   0.240E+01    0.714E-01
DAV:   4    -0.512512958087E+02   -0.18644E-01   -0.25917E-01  4824   0.200E+00    0.859E-01
DAV:   5    -0.512476095477E+02    0.36863E-02   -0.37382E-02  5560   0.211E+00    0.446E-01
DAV:   6    -0.512456814355E+02    0.19281E-02   -0.33727E-03  5712   0.637E-01    0.169E-01
DAV:   7    -0.512454168750E+02    0.26456E-03   -0.10197E-03  5792   0.209E-01    0.535E-02
DAV:   8    -0.512453918161E+02    0.25059E-04   -0.15899E-04  5952   0.115E-01    0.151E-02
DAV:   9    -0.512453910544E+02    0.76170E-06   -0.12103E-05  5536   0.399E-02    0.404E-03
DAV:  10    -0.512453908470E+02    0.20744E-06   -0.54200E-07  5312   0.670E-03    0.147E-03
DAV:  11    -0.512453908556E+02   -0.86484E-08   -0.10167E-07  5872   0.273E-03    0.215E-04
DAV:  12    -0.512453908776E+02   -0.21961E-07   -0.63025E-09  2504   0.498E-04    0.985E-05
DAV:  13    -0.512453908834E+02   -0.58135E-08   -0.89972E-10  2456   0.193E-04
  10 F= -.51245391E+02 E0= -.51245971E+02  d E =-.555860E-01  mag=    -0.0000
       N       E                     dE             d eps       ncg     rms          rms(c)
DAV:   1    -0.509347847622E+02    0.31061E+00   -0.21117E+01  6200   0.121E+02    0.692E+00
DAV:   2    -0.538022542543E+02   -0.28675E+01   -0.18780E+01  5760   0.471E+01    0.139E+01
DAV:   3    -0.512421557599E+02    0.25601E+01   -0.67346E+00  5632   0.371E+01    0.137E+00
DAV:   4    -0.512872769097E+02   -0.45121E-01   -0.80081E-01  5144   0.413E+00    0.125E+00
DAV:   5    -0.512841625116E+02    0.31144E-02   -0.10300E-01  5552   0.367E+00    0.906E-01
DAV:   6    -0.512762380323E+02    0.79245E-02   -0.10956E-02  6072   0.127E+00    0.357E-01
DAV:   7    -0.512755562406E+02    0.68179E-03   -0.21391E-03  5344   0.274E-01    0.217E-01
DAV:   8    -0.512751060994E+02    0.45014E-03   -0.12041E-03  5928   0.359E-01    0.279E-02
DAV:   9    -0.512751078647E+02   -0.17653E-05   -0.74256E-05  4608   0.451E-02    0.120E-02
DAV:  10    -0.512751067205E+02    0.11442E-05   -0.32961E-06  6088   0.164E-02    0.384E-03
DAV:  11    -0.512751065876E+02    0.13287E-06   -0.47681E-07  6232   0.530E-03    0.709E-04
DAV:  12    -0.512751066217E+02   -0.34108E-07   -0.50191E-08  4608   0.214E-03    0.610E-04
DAV:  13    -0.512751066301E+02   -0.84246E-08   -0.75035E-09  2504   0.111E-03
  11 F= -.51275107E+02 E0= -.51275007E+02  d E =-.853018E-01  mag=     0.0000
       N       E                     dE             d eps       ncg     rms          rms(c)
DAV:   1    -0.506569064924E+02    0.61820E+00   -0.22847E+01  5320   0.128E+02    0.415E+00
DAV:   2    -0.521420728739E+02   -0.14852E+01   -0.10797E+01  5600   0.291E+01    0.106E+01
DAV:   3    -0.513470539323E+02    0.79502E+00   -0.31444E+00  5552   0.210E+01    0.266E+00
DAV:   4    -0.513208037786E+02    0.26250E-01   -0.15805E-01  4840   0.310E+00    0.177E+00
DAV:   5    -0.512994804166E+02    0.21323E-01   -0.88705E-02  5768   0.313E+00    0.229E-01
DAV:   6    -0.512993668660E+02    0.11355E-03   -0.43280E-03  4896   0.532E-01    0.214E-01
DAV:   7    -0.512990320543E+02    0.33481E-03   -0.80266E-04  5528   0.310E-01    0.352E-02
DAV:   8    -0.512990423820E+02   -0.10328E-04   -0.10365E-04  4816   0.693E-02    0.371E-02
DAV:   9    -0.512990282528E+02    0.14129E-04   -0.47786E-05  5664   0.765E-02    0.365E-03
DAV:  10    -0.512990284210E+02   -0.16816E-06   -0.34149E-06  4776   0.115E-02    0.128E-03
DAV:  11    -0.512990282769E+02    0.14410E-06   -0.24620E-07  5024   0.244E-03    0.506E-04
DAV:  12    -0.512990282737E+02    0.31878E-08   -0.14124E-08  2960   0.135E-03
  12 F= -.51299028E+02 E0= -.51299004E+02  d E =-.239216E-01  mag=    -0.0000
       N       E                     dE             d eps       ncg     rms          rms(c)
DAV:   1    -0.512582324843E+02    0.40796E-01   -0.14047E+00  5496   0.324E+01    0.116E+00
DAV:   2    -0.513678830510E+02   -0.10965E+00   -0.75739E-01  5752   0.806E+00    0.271E+00
DAV:   3    -0.513012107899E+02    0.66672E-01   -0.21711E-01  5552   0.604E+00    0.488E-01
DAV:   4    -0.513008408898E+02    0.36990E-03   -0.10590E-02  4728   0.652E-01    0.353E-01
DAV:   5    -0.513000619927E+02    0.77890E-03   -0.48865E-03  5688   0.731E-01    0.880E-02
DAV:   6    -0.512999909527E+02    0.71040E-04   -0.28627E-04  5408   0.160E-01    0.425E-02
DAV:   7    -0.512999710111E+02    0.19942E-04   -0.55081E-05  4872   0.585E-02    0.106E-02
DAV:   8    -0.512999708651E+02    0.14602E-06   -0.53049E-06  4960   0.160E-02    0.802E-03
DAV:   9    -0.512999700892E+02    0.77586E-06   -0.21836E-06  5552   0.168E-02    0.682E-04
DAV:  10    -0.512999700930E+02   -0.37826E-08   -0.21785E-07  4864   0.309E-03    0.668E-04
DAV:  11    -0.512999700736E+02    0.19407E-07   -0.24246E-08  3320   0.153E-03    0.112E-04
DAV:  12    -0.512999700756E+02   -0.20182E-08   -0.28225E-09  2296   0.490E-04
  13 F= -.51299970E+02 E0= -.51300039E+02  d E =-.248634E-01  mag=    -0.0000
       N       E                     dE             d eps       ncg     rms          rms(c)
DAV:   1    -0.509123840215E+02    0.38759E+00   -0.20177E+01  7160   0.118E+02    0.423E+00
DAV:   2    -0.522924898977E+02   -0.13801E+01   -0.98635E+00  5976   0.310E+01    0.927E+00
DAV:   3    -0.512996221960E+02    0.99287E+00   -0.25463E+00  5608   0.223E+01    0.671E-01
DAV:   4    -0.513155614936E+02   -0.15939E-01   -0.24009E-01  4824   0.204E+00    0.747E-01
DAV:   5    -0.513121869175E+02    0.33746E-02   -0.22492E-02  5600   0.171E+00    0.314E-01
DAV:   6    -0.513112176596E+02    0.96926E-03   -0.21000E-03  5728   0.481E-01    0.125E-01
DAV:   7    -0.513110738490E+02    0.14381E-03   -0.56806E-04  5760   0.171E-01    0.359E-02
DAV:   8    -0.513110624833E+02    0.11366E-04   -0.70737E-05  5912   0.753E-02    0.999E-03
DAV:   9    -0.513110624793E+02    0.39799E-08   -0.67906E-06  5520   0.304E-02    0.519E-03
DAV:  10    -0.513110621794E+02    0.29987E-06   -0.85603E-07  5464   0.113E-02    0.420E-04
DAV:  11    -0.513110622126E+02   -0.33225E-07   -0.66614E-08  4520   0.163E-03    0.211E-04
DAV:  12    -0.513110622289E+02   -0.16285E-07   -0.24549E-09  2504   0.344E-04    0.152E-04
DAV:  13    -0.513110622336E+02   -0.46757E-08   -0.71575E-10  2400   0.227E-04
  14 F= -.51311062E+02 E0= -.51311722E+02  d E =-.110922E-01  mag=     0.0000
       N       E                     dE             d eps       ncg     rms          rms(c)
DAV:   1    -0.513087857745E+02    0.22765E-02   -0.98040E-02  6624   0.835E+00    0.261E-01
DAV:   2    -0.513147032327E+02   -0.59175E-02   -0.42880E-02  5648   0.192E+00    0.618E-01
DAV:   3    -0.513111250912E+02    0.35781E-02   -0.10751E-02  5504   0.138E+00    0.702E-02
DAV:   4    -0.513111390445E+02   -0.13953E-04   -0.57999E-04  4904   0.123E-01    0.546E-02
DAV:   5    -0.513111197384E+02    0.19306E-04   -0.13786E-04  5648   0.132E-01    0.219E-02
DAV:   6    -0.513111148792E+02    0.48592E-05   -0.12518E-05  5488   0.365E-02    0.683E-03
DAV:   7    -0.513111142226E+02    0.65655E-06   -0.40009E-06  5968   0.151E-02    0.218E-03
DAV:   8    -0.513111142007E+02    0.21920E-07   -0.31878E-07  5432   0.548E-03    0.749E-04
DAV:   9    -0.513111141829E+02    0.17750E-07   -0.14921E-08  2784   0.148E-03    0.257E-04
DAV:  10    -0.513111141757E+02    0.72623E-08   -0.59187E-09  2344   0.444E-04
  15 F= -.51311114E+02 E0= -.51311802E+02  d E =-.111441E-01  mag=     0.0000
       N       E                     dE             d eps       ncg     rms          rms(c)
DAV:   1    -0.512111545636E+02    0.99960E-01   -0.37676E+00  6664   0.518E+01    0.118E+00
DAV:   2    -0.513854008350E+02   -0.17425E+00   -0.14390E+00  5448   0.952E+00    0.283E+00
DAV:   3    -0.513158886604E+02    0.69512E-01   -0.22537E-01  5472   0.617E+00    0.356E-01
DAV:   4    -0.513161823597E+02   -0.29370E-03   -0.12088E-02  4984   0.655E-01    0.260E-01
DAV:   5    -0.513157879838E+02    0.39438E-03   -0.24445E-03  5736   0.615E-01    0.928E-02
DAV:   6    -0.513157210540E+02    0.66930E-04   -0.24793E-04  5712   0.154E-01    0.392E-02
DAV:   7    -0.513157084395E+02    0.12615E-04   -0.46704E-05  6232   0.652E-02    0.107E-02
DAV:   8    -0.513157080607E+02    0.37883E-06   -0.80170E-06  5600   0.258E-02    0.279E-03
DAV:   9    -0.513157080767E+02   -0.16026E-07   -0.40989E-07  5104   0.987E-03    0.942E-04
DAV:  10    -0.513157080806E+02   -0.39527E-08   -0.86606E-08  5248   0.294E-03
  16 F= -.51315708E+02 E0= -.51316506E+02  d E =-.459390E-02  mag=    -0.0000
       N       E                     dE             d eps       ncg     rms          rms(c)
DAV:   1    -0.512924400660E+02    0.23268E-01   -0.88326E-01  6704   0.251E+01    0.593E-01
DAV:   2    -0.513340973648E+02   -0.41657E-01   -0.34139E-01  5488   0.474E+00    0.141E+00
DAV:   3    -0.513162114852E+02    0.17886E-01   -0.55130E-02  5488   0.310E+00    0.149E-01
DAV:   4    -0.513163512334E+02   -0.13975E-03   -0.30137E-03  4928   0.303E-01    0.117E-01
DAV:   5    -0.513162797408E+02    0.71493E-04   -0.56728E-04  5696   0.301E-01    0.524E-02
DAV:   6    -0.513162581049E+02    0.21636E-04   -0.65712E-05  5792   0.828E-02    0.216E-02
DAV:   7    -0.513162545332E+02    0.35716E-05   -0.14578E-05  6336   0.341E-02    0.585E-03
DAV:   8    -0.513162544164E+02    0.11684E-06   -0.19858E-06  5800   0.140E-02    0.122E-03
DAV:   9    -0.513162544460E+02   -0.29659E-07   -0.85618E-08  4968   0.400E-03    0.312E-04
DAV:  10    -0.513162544447E+02    0.13279E-08   -0.12340E-08  2552   0.109E-03
  17 F= -.51316254E+02 E0= -.51317099E+02  d E =-.514027E-02  mag=     0.0000
       N       E                     dE             d eps       ncg     rms          rms(c)
DAV:   1    -0.513369557088E+02   -0.20701E-01   -0.17062E-01  5152   0.573E+00    0.165E+00
DAV:   2    -0.514794486583E+02   -0.14249E+00   -0.76957E-01  5688   0.109E+01    0.407E+00
DAV:   3    -0.513150650031E+02    0.16438E+00   -0.43015E-01  5656   0.877E+00    0.175E-01
DAV:   4    -0.513172986850E+02   -0.22337E-02   -0.27237E-02  4584   0.637E-01    0.284E-01
DAV:   5    -0.513167067464E+02    0.59194E-03   -0.13035E-03  5688   0.394E-01    0.446E-02
DAV:   6    -0.513167013087E+02    0.54377E-05   -0.12809E-04  6240   0.684E-02    0.816E-03
DAV:   7    -0.513167007061E+02    0.60260E-06   -0.38013E-06  4848   0.158E-02    0.128E-03
DAV:   8    -0.513167005818E+02    0.12427E-06   -0.40056E-07  4816   0.494E-03    0.765E-04
DAV:   9    -0.513167004734E+02    0.10839E-06   -0.20357E-08  3560   0.109E-03    0.361E-04
DAV:  10    -0.513167004255E+02    0.47961E-07   -0.46306E-09  2496   0.456E-04    0.109E-04
DAV:  11    -0.513167004210E+02    0.44292E-08   -0.13247E-09  2368   0.256E-04
  18 F= -.51316700E+02 E0= -.51317525E+02  d E =-.445976E-03  mag=     0.0000
       N       E                     dE             d eps       ncg     rms          rms(c)
DAV:   1    -0.513177001920E+02   -0.99977E-03   -0.81706E-03  5120   0.125E+00    0.355E-01
DAV:   2    -0.513243344555E+02   -0.66343E-02   -0.35594E-02  5752   0.235E+00    0.918E-01
DAV:   3    -0.513166879782E+02    0.76465E-02   -0.20881E-02  5688   0.185E+00    0.516E-02
DAV:   4    -0.513167581763E+02   -0.70198E-04   -0.96897E-04  4536   0.123E-01    0.514E-02
DAV:   5    -0.513167388914E+02    0.19285E-04   -0.56418E-05  5688   0.816E-02    0.486E-03
DAV:   6    -0.513167390134E+02   -0.12195E-06   -0.31702E-06  4696   0.934E-03    0.217E-03
DAV:   7    -0.513167391033E+02   -0.89965E-07   -0.15639E-07  5280   0.294E-03    0.282E-04
DAV:   8    -0.513167391276E+02   -0.24327E-07   -0.25711E-08  3840   0.126E-03    0.179E-04
DAV:   9    -0.513167391648E+02   -0.37175E-07   -0.37364E-09  2416   0.449E-04    0.118E-04
DAV:  10    -0.513167391668E+02   -0.19818E-08   -0.95077E-10  2304   0.267E-04
  19 F= -.51316739E+02 E0= -.51317568E+02  d E =-.484722E-03  mag=     0.0000
       N       E                     dE             d eps       ncg     rms          rms(c)
DAV:   1    -0.513172020311E+02   -0.46287E-03   -0.32607E-02  4896   0.436E+00    0.383E-01
DAV:   2    -0.513250535439E+02   -0.78515E-02   -0.44061E-02  5672   0.253E+00    0.933E-01
DAV:   3    -0.513170124621E+02    0.80411E-02   -0.23376E-02  5576   0.198E+00    0.938E-02
DAV:   4    -0.513170505126E+02   -0.38050E-04   -0.11315E-03  4800   0.171E-01    0.698E-02
DAV:   5    -0.513170237929E+02    0.26720E-04   -0.24834E-04  5648   0.169E-01    0.278E-02
DAV:   6    -0.513170171312E+02    0.66617E-05   -0.23773E-05  5280   0.532E-02    0.560E-03
DAV:   7    -0.513170170774E+02    0.53788E-07   -0.45604E-06  5456   0.145E-02    0.293E-03
DAV:   8    -0.513170170476E+02    0.29847E-07   -0.42850E-07  5384   0.625E-03    0.491E-04
DAV:   9    -0.513170170658E+02   -0.18242E-07   -0.15775E-08  3000   0.105E-03    0.266E-04
DAV:  10    -0.513170170752E+02   -0.93978E-08   -0.31299E-09  2336   0.453E-04
  20 F= -.51317017E+02 E0= -.51317848E+02  d E =-.277908E-03  mag=     0.0000
       N       E                     dE             d eps       ncg     rms          rms(c)
DAV:   1    -0.513170952112E+02   -0.78145E-04   -0.79442E-03  4936   0.215E+00    0.190E-01
DAV:   2    -0.513190196645E+02   -0.19245E-02   -0.10792E-02  5672   0.125E+00    0.461E-01
DAV:   3    -0.513170458890E+02    0.19738E-02   -0.57065E-03  5592   0.983E-01    0.452E-02
DAV:   4    -0.513170563463E+02   -0.10457E-04   -0.27972E-04  4800   0.834E-02    0.345E-02
DAV:   5    -0.513170499509E+02    0.63954E-05   -0.61206E-05  5648   0.840E-02    0.139E-02
DAV:   6    -0.513170483242E+02    0.16267E-05   -0.58788E-06  5288   0.265E-02    0.283E-03
DAV:   7    -0.513170483624E+02   -0.38231E-07   -0.11607E-06  5488   0.736E-03    0.146E-03
DAV:   8    -0.513170483590E+02    0.34197E-08   -0.10734E-07  5180   0.311E-03    0.232E-04
DAV:   9    -0.513170483692E+02   -0.10208E-07   -0.37569E-09  2360   0.506E-04    0.129E-04
DAV:  10    -0.513170483727E+02   -0.35125E-08   -0.87131E-10  2248   0.239E-04
  21 F= -.51317048E+02 E0= -.51317880E+02  d E =-.309206E-03  mag=    -0.0000
       N       E                     dE             d eps       ncg     rms          rms(c)
DAV:   1    -0.513166507190E+02    0.39765E-03   -0.36340E-02  4656   0.470E+00    0.301E-01
DAV:   2    -0.513213949266E+02   -0.47442E-02   -0.30811E-02  5800   0.198E+00    0.657E-01
DAV:   3    -0.513172814791E+02    0.41134E-02   -0.12142E-02  5608   0.146E+00    0.944E-02
DAV:   4    -0.513172280298E+02    0.53449E-04   -0.65473E-04  4744   0.168E-01    0.372E-02
DAV:   5    -0.513172175471E+02    0.10483E-04   -0.64490E-05  6112   0.747E-02    0.909E-03
DAV:   6    -0.513172168811E+02    0.66599E-06   -0.10507E-05  4992   0.333E-02    0.739E-03
DAV:   7    -0.513172164522E+02    0.42896E-06   -0.10740E-06  5144   0.125E-02    0.137E-03
DAV:   8    -0.513172163872E+02    0.65002E-07   -0.11828E-07  4776   0.187E-03    0.280E-04
DAV:   9    -0.513172163602E+02    0.26912E-07   -0.46604E-09  2464   0.560E-04    0.208E-04
DAV:  10    -0.513172163525E+02    0.77762E-08   -0.20176E-09  2344   0.552E-04
  22 F= -.51317216E+02 E0= -.51318103E+02  d E =-.167980E-03  mag=     0.0000
       N       E                     dE             d eps       ncg     rms          rms(c)
DAV:   1    -0.513172110202E+02    0.53400E-05   -0.46405E-04  4672   0.531E-01    0.338E-02
DAV:   2    -0.513172718492E+02   -0.60829E-04   -0.39110E-04  5808   0.222E-01    0.740E-02
DAV:   3    -0.513172195223E+02    0.52327E-04   -0.15424E-04  5624   0.164E-01    0.109E-02
DAV:   4    -0.513172187164E+02    0.80593E-06   -0.81768E-06  4776   0.194E-02    0.413E-03
DAV:   5    -0.513172185590E+02    0.15735E-06   -0.79506E-07  6120   0.814E-03    0.983E-04
DAV:   6    -0.513172185343E+02    0.24729E-07   -0.12427E-07  4880   0.358E-03    0.801E-04
DAV:   7    -0.513172185225E+02    0.11776E-07   -0.10454E-08  2320   0.133E-03    0.154E-04
DAV:   8    -0.513172185133E+02    0.92241E-08   -0.37394E-09  2224   0.318E-04
  23 F= -.51317219E+02 E0= -.51318111E+02  d E =-.170141E-03  mag=     0.0000
       N       E                     dE             d eps       ncg     rms          rms(c)
DAV:   1    -0.513174201055E+02   -0.20158E-03   -0.36853E-03  4616   0.114E+00    0.153E-01
DAV:   2    -0.513186045939E+02   -0.11845E-02   -0.64491E-03  5720   0.101E+00    0.377E-01
DAV:   3    -0.513172896242E+02    0.13150E-02   -0.37585E-03  5648   0.793E-01    0.313E-02
DAV:   4    -0.513172987657E+02   -0.91415E-05   -0.18261E-04  4552   0.647E-02    0.233E-02
DAV:   5    -0.513172954772E+02    0.32885E-05   -0.22311E-05  5672   0.507E-02    0.575E-03
DAV:   6    -0.513172952390E+02    0.23821E-06   -0.15269E-06  5040   0.127E-02    0.139E-03
DAV:   7    -0.513172952963E+02   -0.57235E-07   -0.25406E-07  5048   0.360E-03    0.686E-04
DAV:   8    -0.513172953020E+02   -0.57562E-08   -0.25511E-08  3480   0.142E-03
  24 F= -.51317295E+02 E0= -.51318173E+02  d E =-.767887E-04  mag=     0.0000
       N       E                     dE             d eps       ncg     rms          rms(c)
DAV:   1    -0.513173606871E+02   -0.65391E-04   -0.15115E-03  4632   0.731E-01    0.983E-02
DAV:   2    -0.513178467275E+02   -0.48604E-03   -0.26492E-03  5696   0.644E-01    0.241E-01
DAV:   3    -0.513173067010E+02    0.54003E-03   -0.15402E-03  5616   0.508E-01    0.199E-02
DAV:   4    -0.513173105693E+02   -0.38684E-05   -0.75110E-05  4552   0.411E-02    0.150E-02
DAV:   5    -0.513173092116E+02    0.13577E-05   -0.91242E-06  5672   0.325E-02    0.365E-03
DAV:   6    -0.513173091272E+02    0.84422E-07   -0.62254E-07  5040   0.807E-03    0.889E-04
DAV:   7    -0.513173091672E+02   -0.39987E-07   -0.10352E-07  4848   0.230E-03    0.437E-04
DAV:   8    -0.513173091720E+02   -0.48485E-08   -0.93008E-09  2360   0.908E-04
  25 F= -.51317309E+02 E0= -.51318177E+02  d E =-.906587E-04  mag=    -0.0000
       N       E                     dE             d eps       ncg     rms          rms(c)
DAV:   1    -0.513187518346E+02   -0.14427E-02   -0.12110E-02  5096   0.131E+00    0.433E-01
DAV:   2    -0.513285948190E+02   -0.98430E-02   -0.53844E-02  5720   0.286E+00    0.110E+00
DAV:   3    -0.513172281259E+02    0.11367E-01   -0.30408E-02  5664   0.227E+00    0.525E-02
DAV:   4    -0.513173530604E+02   -0.12493E-03   -0.15960E-03  4520   0.151E-01    0.691E-02
DAV:   5    -0.513173179251E+02    0.35135E-04   -0.85037E-05  5744   0.100E-01    0.892E-03
DAV:   6    -0.513173178367E+02    0.88433E-07   -0.68777E-06  5032   0.137E-02    0.182E-03
DAV:   7    -0.513173177173E+02    0.11940E-06   -0.21656E-07  4840   0.345E-03    0.291E-04
DAV:   8    -0.513173176915E+02    0.25806E-07   -0.27491E-08  4080   0.120E-03    0.196E-04
DAV:   9    -0.513173176548E+02    0.36692E-07   -0.31777E-09  2520   0.357E-04    0.839E-05
DAV:  10    -0.513173176493E+02    0.55124E-08   -0.87459E-10  2320   0.216E-04
  26 F= -.51317318E+02 E0= -.51318173E+02  d E =-.847723E-05  mag=    -0.0000
       N       E                     dE             d eps       ncg     rms          rms(c)
DAV:   1    -0.513175722630E+02   -0.25461E-03   -0.20596E-03  5096   0.540E-01    0.178E-01
DAV:   2    -0.513192327794E+02   -0.16605E-02   -0.91003E-03  5752   0.118E+00    0.459E-01
DAV:   3    -0.513173142684E+02    0.19185E-02   -0.51901E-03  5688   0.924E-01    0.237E-02
DAV:   4    -0.513173328926E+02   -0.18624E-04   -0.24962E-04  4488   0.605E-02    0.268E-02
DAV:   5    -0.513173273831E+02    0.55095E-05   -0.13777E-05  5776   0.401E-02    0.321E-03
DAV:   6    -0.513173273661E+02    0.17022E-07   -0.97524E-07  4712   0.492E-03    0.798E-04
DAV:   7    -0.513173274064E+02   -0.40355E-07   -0.30624E-08  4320   0.129E-03    0.207E-04
DAV:   8    -0.513173274199E+02   -0.13444E-07   -0.50285E-09  2512   0.719E-04    0.692E-05
DAV:   9    -0.513173274360E+02   -0.16174E-07   -0.16747E-09  2352   0.242E-04    0.500E-05
DAV:  10    -0.513173274357E+02    0.30468E-09   -0.36640E-10  2280   0.160E-04
  27 F= -.51317327E+02 E0= -.51318188E+02  d E =-.182637E-04  mag=     0.0000
