 running on   24 total cores
 distrk:  each k-point on   24 cores,    1 groups
 distr:  one band on    6 cores,    4 groups
 using from now: INCAR     
 vasp.5.4.4.18Apr17-6-g9f103f2a35 (build Jan 03 2018 06:08:52) complex          
  
 POSCAR found :  2 types and       8 ions
 scaLAPACK will be used
 WARNING: for PREC=h ENMAX is automatically increase by 25 %
        this was not the case for versions prior to vasp.4.4
 WARNING: for PREC=h ENMAX is automatically increase by 25 %
        this was not the case for versions prior to vasp.4.4
 LDA part: xc-table for Pade appr. of Perdew
 POSCAR, INCAR and KPOINTS ok, starting setup
 FFT: planning ...
 WAVECAR not read
 entering main loop
       N       E                     dE             d eps       ncg     rms          rms(c)
DAV:   1     0.159329187536E+04    0.15933E+04   -0.68485E+04  8264   0.202E+03
DAV:   2     0.724369858527E+02   -0.15209E+04   -0.14638E+04  7304   0.641E+02
DAV:   3    -0.487783821405E+02   -0.12122E+03   -0.10748E+03  7936   0.199E+02
DAV:   4    -0.534851277332E+02   -0.47067E+01   -0.46453E+01  7956   0.393E+01
DAV:   5    -0.535754029132E+02   -0.90275E-01   -0.90257E-01  8248   0.503E+00    0.259E+01
DAV:   6    -0.533085098943E+02    0.26689E+00   -0.84555E+01  8008   0.890E+01    0.273E+01
DAV:   7    -0.478719839786E+02    0.54365E+01   -0.24853E+01  8224   0.626E+01    0.298E+01
DAV:   8    -0.459954180304E+02    0.18766E+01   -0.10989E+01  7988   0.265E+01    0.743E+00
DAV:   9    -0.461106708213E+02   -0.11525E+00   -0.12121E+00  8392   0.165E+01    0.805E+00
DAV:  10    -0.458315538928E+02    0.27912E+00   -0.51231E-01  8076   0.119E+01    0.327E+00
DAV:  11    -0.457807017258E+02    0.50852E-01   -0.92028E-02 10036   0.341E+00    0.839E-01
DAV:  12    -0.457816129598E+02   -0.91123E-03   -0.27070E-02  8096   0.149E+00    0.254E-01
DAV:  13    -0.457821356952E+02   -0.52274E-03   -0.44204E-03  8080   0.577E-01    0.165E-01
DAV:  14    -0.457821297111E+02    0.59841E-05   -0.46796E-04  7836   0.279E-01    0.828E-02
DAV:  15    -0.457821330799E+02   -0.33688E-05   -0.55112E-05  9172   0.108E-01    0.202E-02
DAV:  16    -0.457821357375E+02   -0.26576E-05   -0.11917E-05  8180   0.256E-02    0.963E-03
DAV:  17    -0.457821355436E+02    0.19389E-06   -0.10731E-06  8804   0.133E-02    0.356E-03
DAV:  18    -0.457821357096E+02   -0.16606E-06   -0.30170E-07  7908   0.484E-03    0.255E-03
DAV:  19    -0.457821358620E+02   -0.15241E-06   -0.31169E-08  7104   0.214E-03    0.115E-03
DAV:  20    -0.457821359153E+02   -0.53235E-07   -0.12331E-08  4784   0.916E-04    0.390E-04
DAV:  21    -0.457821359235E+02   -0.82655E-08   -0.28294E-09  3948   0.468E-04
   1 F= -.45782136E+02 E0= -.45781517E+02  d E =-.457821E+02  mag=     2.6523
 curvature:   0.00 expect dE= 0.000E+00 dE for cont linesearch  0.000E+00
 trial: gam= 0.00000 g(F)=  0.136E-01 g(S)=  0.632E-01 ort = 0.000E+00 (trialstep = 0.100E+01)
 search vector abs. value=  0.768E-01
 bond charge predicted
       N       E                     dE             d eps       ncg     rms          rms(c)
DAV:   1    -0.512485462560E+02   -0.54664E+01   -0.57114E+01  7616   0.107E+02    0.236E+01
DAV:   2    -0.513596423075E+02   -0.11110E+00   -0.66957E+01  7992   0.729E+01    0.228E+01
DAV:   3    -0.497289847818E+02    0.16307E+01   -0.28972E+01  7952   0.575E+01    0.200E+01
DAV:   4    -0.460178763129E+02    0.37111E+01   -0.75716E+00  7904   0.360E+01    0.737E+00
DAV:   5    -0.459383093454E+02    0.79567E-01   -0.12122E+00  8104   0.120E+01    0.501E+00
DAV:   6    -0.458168887563E+02    0.12142E+00   -0.19616E-01  9020   0.643E+00    0.166E+00
DAV:   7    -0.457976673610E+02    0.19221E-01   -0.79264E-02  8428   0.208E+00    0.124E+00
DAV:   8    -0.457950071522E+02    0.26602E-02   -0.16325E-02  8124   0.187E+00    0.264E-01
DAV:   9    -0.457954072116E+02   -0.40006E-03   -0.17077E-03  7984   0.310E-01    0.121E-01
DAV:  10    -0.457953848457E+02    0.22366E-04   -0.16898E-04  9468   0.166E-01    0.481E-02
DAV:  11    -0.457953935747E+02   -0.87290E-05   -0.63793E-05  8308   0.779E-02    0.189E-02
DAV:  12    -0.457953973133E+02   -0.37386E-05   -0.88868E-06  8668   0.372E-02    0.131E-02
DAV:  13    -0.457953972818E+02    0.31439E-07   -0.22641E-06  8652   0.259E-02    0.367E-03
DAV:  14    -0.457953975918E+02   -0.31002E-06   -0.42711E-07  8668   0.590E-03    0.450E-03
DAV:  15    -0.457953976138E+02   -0.21915E-07   -0.18471E-07  8096   0.842E-03    0.149E-03
DAV:  16    -0.457953976323E+02   -0.18557E-07   -0.31777E-08  6140   0.169E-03    0.833E-04
DAV:  17    -0.457953976153E+02    0.17029E-07   -0.75620E-09  3964   0.185E-03    0.650E-04
DAV:  18    -0.457953976149E+02    0.43292E-09   -0.24855E-09  3780   0.669E-04
   2 F= -.45795398E+02 E0= -.45794714E+02  d E =-.132617E-01  mag=     2.7184
 trial-energy change:   -0.013262  1 .order   -0.014239   -0.076800    0.048322
 step:   0.6026(harm=  0.6138)  dis= 0.00771  next Energy=   -45.805061 (dE=-0.229E-01)
 bond charge predicted
       N       E                     dE             d eps       ncg     rms          rms(c)
DAV:   1    -0.466598374880E+02   -0.86444E+00   -0.88132E+00  7632   0.426E+01    0.934E+00
DAV:   2    -0.465951712160E+02    0.64666E-01   -0.88053E+00  7956   0.294E+01    0.835E+00
DAV:   3    -0.462937124967E+02    0.30146E+00   -0.26250E+00  7996   0.227E+01    0.149E+01
DAV:   4    -0.458117245776E+02    0.48199E+00   -0.16252E+00  7928   0.119E+01    0.156E+00
DAV:   5    -0.458273824814E+02   -0.15658E-01   -0.97555E-02  8404   0.499E+00    0.197E+00
DAV:   6    -0.458061144993E+02    0.21268E-01   -0.37016E-02  8020   0.363E+00    0.585E-01
DAV:   7    -0.458051345477E+02    0.97995E-03   -0.57494E-03  8196   0.695E-01    0.262E-01
DAV:   8    -0.458050241006E+02    0.11045E-03   -0.62982E-04  7968   0.234E-01    0.108E-01
DAV:   9    -0.458049863622E+02    0.37738E-04   -0.88071E-05 10284   0.107E-01    0.174E-02
DAV:  10    -0.458049894204E+02   -0.30582E-05   -0.56004E-05  7872   0.566E-02    0.126E-02
DAV:  11    -0.458049885182E+02    0.90215E-06   -0.18859E-06  7708   0.122E-02    0.954E-03
DAV:  12    -0.458049875020E+02    0.10162E-05   -0.36534E-07  9252   0.752E-03    0.392E-03
DAV:  13    -0.458049873527E+02    0.14934E-06   -0.17214E-07  8204   0.337E-03    0.906E-04
DAV:  14    -0.458049873701E+02   -0.17440E-07   -0.44812E-08  6148   0.147E-03    0.458E-04
DAV:  15    -0.458049873732E+02   -0.31068E-08   -0.20880E-09  3776   0.492E-04
   3 F= -.45804987E+02 E0= -.45804308E+02  d E =-.228514E-01  mag=     2.6954
 curvature:  -0.31 expect dE=-0.161E-02 dE for cont linesearch -0.472E-06
 trial: gam= 0.07269 g(F)=  0.424E-02 g(S)=  0.998E-03 ort =-0.344E-03 (trialstep = 0.921E+00)
 search vector abs. value=  0.559E-02
 bond charge predicted
       N       E                     dE             d eps       ncg     rms          rms(c)
DAV:   1    -0.457065428246E+02    0.98445E-01   -0.21214E+00 10644   0.442E+01    0.108E+00
DAV:   2    -0.458115929437E+02   -0.10505E+00   -0.11605E+00  7836   0.641E+00    0.616E-01
DAV:   3    -0.458090476298E+02    0.25453E-02   -0.47825E-02  8348   0.198E+00    0.323E-01
DAV:   4    -0.458088210976E+02    0.22653E-03   -0.20006E-03  9328   0.541E-01    0.273E-01
DAV:   5    -0.458085874120E+02    0.23369E-03   -0.39032E-04  7792   0.356E-01    0.228E-01
DAV:   6    -0.458081718096E+02    0.41560E-03   -0.47570E-04  8056   0.349E-01    0.885E-02
DAV:   7    -0.458081829948E+02   -0.11185E-04   -0.20556E-04  8868   0.296E-01    0.950E-02
DAV:   8    -0.458081331600E+02    0.49835E-04   -0.80079E-05  8388   0.204E-01    0.219E-02
DAV:   9    -0.458081314149E+02    0.17451E-05   -0.19986E-05  8128   0.389E-02    0.898E-03
DAV:  10    -0.458081309259E+02    0.48895E-06   -0.12886E-06  8684   0.166E-02    0.209E-03
DAV:  11    -0.458081308291E+02    0.96788E-07   -0.57916E-07  8128   0.670E-03    0.981E-04
DAV:  12    -0.458081308016E+02    0.27532E-07   -0.23880E-08  5312   0.156E-03    0.544E-04
DAV:  13    -0.458081307882E+02    0.13359E-07   -0.79773E-09  3920   0.918E-04    0.116E-04
DAV:  14    -0.458081307811E+02    0.71377E-08   -0.25805E-09  3752   0.425E-04
   4 F= -.45808131E+02 E0= -.45807442E+02  d E =-.314341E-02  mag=     2.6950
 trial-energy change:   -0.003143  1 .order   -0.003139   -0.004800   -0.001478
 step:   1.3302(harm=  1.3302)  dis= 0.01075  next Energy=   -45.808455 (dE=-0.347E-02)
 bond charge predicted
       N       E                     dE             d eps       ncg     rms          rms(c)
DAV:   1    -0.457880453275E+02    0.20085E-01   -0.41839E-01 10552   0.197E+01    0.477E-01
DAV:   2    -0.458090967098E+02   -0.21051E-01   -0.23170E-01  7796   0.286E+00    0.266E-01
DAV:   3    -0.458086552925E+02    0.44142E-03   -0.93545E-03  8468   0.876E-01    0.146E-01
DAV:   4    -0.458085886545E+02    0.66638E-04   -0.37878E-04  8808   0.276E-01    0.112E-01
DAV:   5    -0.458085436676E+02    0.44987E-04   -0.63167E-05  8052   0.158E-01    0.947E-02
DAV:   6    -0.458085439056E+02   -0.23797E-06   -0.17177E-04  8064   0.253E-01    0.148E-01
DAV:   7    -0.458084621729E+02    0.81733E-04   -0.12393E-04  8400   0.235E-01    0.289E-02
DAV:   8    -0.458084570856E+02    0.50873E-05   -0.15893E-05  9204   0.478E-02    0.983E-03
DAV:   9    -0.458084562674E+02    0.81824E-06   -0.32531E-06  8448   0.183E-02    0.273E-03
DAV:  10    -0.458084561303E+02    0.13708E-06   -0.35808E-07  8104   0.750E-03    0.129E-03
DAV:  11    -0.458084560780E+02    0.52310E-07   -0.14139E-07  8140   0.458E-03    0.478E-04
DAV:  12    -0.458084560712E+02    0.68285E-08   -0.10412E-08  3792   0.114E-03
   5 F= -.45808456E+02 E0= -.45807774E+02  d E =-.346870E-02  mag=     2.6947
 curvature:  -0.71 expect dE=-0.220E-05 dE for cont linesearch -0.407E-07
 trial: gam= 0.01024 g(F)=  0.521E-08 g(S)=  0.308E-05 ort =-0.179E-04 (trialstep = 0.100E+01)
 search vector abs. value=  0.331E-05
 reached required accuracy - stopping structural energy minimisation
 writing wavefunctions
