       N       E                     dE             d eps       ncg     rms          rms(c)
DAV:   1     0.619897245131E+03    0.61990E+03   -0.33940E+04  9288   0.158E+03
DAV:   2    -0.104987831840E+01   -0.62095E+03   -0.59431E+03  7760   0.503E+02
DAV:   3    -0.382574081496E+02   -0.37208E+02   -0.34285E+02  9168   0.136E+02
DAV:   4    -0.393348171760E+02   -0.10774E+01   -0.10730E+01  8416   0.233E+01
DAV:   5    -0.393659156697E+02   -0.31098E-01   -0.31091E-01  9440   0.418E+00    0.319E+01
DAV:   6    -0.753001343705E+02   -0.35934E+02   -0.26079E+02  9448   0.200E+02    0.468E+01
DAV:   7    -0.339746757144E+02    0.41325E+02   -0.97449E+01  8936   0.117E+02    0.159E+01
DAV:   8    -0.318680908540E+02    0.21066E+01   -0.26019E+01 10152   0.449E+01    0.721E+00
DAV:   9    -0.315687979638E+02    0.29929E+00   -0.27577E+00  9560   0.159E+01    0.152E+00
DAV:  10    -0.315993737586E+02   -0.30576E-01   -0.77259E-02  8976   0.213E+00    0.938E-01
DAV:  11    -0.315942858898E+02    0.50879E-02   -0.28817E-02  9384   0.150E+00    0.303E-01
DAV:  12    -0.315943884069E+02   -0.10252E-03   -0.34798E-03 10592   0.553E-01    0.205E-01
DAV:  13    -0.315944948035E+02   -0.10640E-03   -0.33598E-03  9488   0.900E-01    0.222E-01
DAV:  14    -0.315943208519E+02    0.17395E-03   -0.13547E-03  9888   0.572E-01    0.692E-02
DAV:  15    -0.315943713862E+02   -0.50534E-04   -0.14881E-04  9368   0.104E-01    0.290E-02
DAV:  16    -0.315943840650E+02   -0.12679E-04   -0.51749E-05 10536   0.608E-02    0.221E-02
DAV:  17    -0.315943915685E+02   -0.75035E-05   -0.26849E-05 10704   0.440E-02    0.208E-02
DAV:  18    -0.315943889796E+02    0.25889E-05   -0.17613E-05  9600   0.358E-02    0.397E-03
DAV:  19    -0.315943892341E+02   -0.25444E-06   -0.20289E-06 11088   0.116E-02    0.254E-03
DAV:  20    -0.315943893180E+02   -0.83974E-07   -0.32517E-07  8072   0.524E-03    0.603E-04
DAV:  21    -0.315943893667E+02   -0.48640E-07   -0.17488E-08  5216   0.113E-03    0.219E-04
DAV:  22    -0.315943893908E+02   -0.24116E-07   -0.33345E-09  4304   0.600E-04    0.190E-04
DAV:  23    -0.315943894030E+02   -0.12218E-07   -0.30702E-09  4176   0.539E-04    0.842E-05
DAV:  24    -0.315943894028E+02    0.21464E-09   -0.95323E-10  4080   0.300E-04
   1 F= -.31594389E+02 E0= -.31593922E+02  d E =-.315944E+02  mag=    -0.0000
       N       E                     dE             d eps       ncg     rms          rms(c)
DAV:   1    -0.238882845607E+03   -0.20729E+03   -0.32182E+03  7520   0.758E+02    0.104E+02
DAV:   2    -0.780591127141E+02    0.16082E+03   -0.11190E+03  8448   0.267E+02    0.579E+01
DAV:   3    -0.802063861285E+02   -0.21473E+01   -0.44663E+02  9024   0.199E+02    0.514E+01
DAV:   4    -0.383049719624E+02    0.41901E+02   -0.10846E+02  8784   0.100E+02    0.167E+01
DAV:   5    -0.335340787154E+02    0.47709E+01   -0.91286E+00 10656   0.230E+01    0.665E+00
DAV:   6    -0.338637246207E+02   -0.32965E+00   -0.66284E+00 10272   0.262E+01    0.115E+01
DAV:   7    -0.333087433307E+02    0.55498E+00   -0.19799E+00  9664   0.182E+01    0.663E+00
DAV:   8    -0.329240690559E+02    0.38467E+00   -0.19965E+00  8816   0.127E+01    0.120E+00
DAV:   9    -0.329179652064E+02    0.61038E-02   -0.90836E-02  8752   0.261E+00    0.377E-01
DAV:  10    -0.329173049718E+02    0.66023E-03   -0.48039E-03  9616   0.646E-01    0.138E-01
DAV:  11    -0.329172485658E+02    0.56406E-04   -0.12974E-03 10080   0.396E-01    0.685E-02
DAV:  12    -0.329172535466E+02   -0.49808E-05   -0.17646E-04  9672   0.138E-01    0.557E-02
DAV:  13    -0.329172256060E+02    0.27941E-04   -0.10827E-04 10240   0.848E-02    0.582E-03
DAV:  14    -0.329172261240E+02   -0.51804E-06   -0.49771E-06  8704   0.160E-02    0.841E-03
DAV:  15    -0.329172253947E+02    0.72933E-06   -0.33833E-06  9016   0.161E-02    0.153E-03
DAV:  16    -0.329172253108E+02    0.83828E-07   -0.17743E-07  8544   0.404E-03    0.336E-04
DAV:  17    -0.329172252872E+02    0.23643E-07   -0.15042E-08  5480   0.132E-03    0.280E-04
DAV:  18    -0.329172252889E+02   -0.16844E-08   -0.49537E-09  4368   0.765E-04
   2 F= -.32917225E+02 E0= -.32917198E+02  d E =-.132284E+01  mag=     0.0000
       N       E                     dE             d eps       ncg     rms          rms(c)
DAV:   1    -0.110175984934E+03   -0.77259E+02   -0.63936E+02  8624   0.258E+02    0.939E+01
DAV:   2    -0.249382307059E+03   -0.13921E+03   -0.19115E+03  9744   0.489E+02    0.782E+01
DAV:   3    -0.646771103817E+02    0.18471E+03   -0.58862E+02  9696   0.203E+02    0.350E+01
DAV:   4    -0.386327410645E+02    0.26044E+02   -0.62604E+01  8960   0.739E+01    0.156E+01
DAV:   5    -0.373450180462E+02    0.12877E+01   -0.56838E+01 10736   0.530E+01    0.248E+01
DAV:   6    -0.358251175414E+02    0.15199E+01   -0.24205E+01  9952   0.294E+01    0.148E+01
DAV:   7    -0.338567181541E+02    0.19684E+01   -0.49567E+00 10304   0.161E+01    0.299E+00
DAV:   8    -0.340585002613E+02   -0.20178E+00   -0.14319E+00  9192   0.117E+01    0.541E+00
DAV:   9    -0.338175069174E+02    0.24099E+00   -0.30394E-01 10048   0.464E+00    0.206E+00
DAV:  10    -0.337681583381E+02    0.49349E-01   -0.14211E-01 10976   0.269E+00    0.283E-01
DAV:  11    -0.337687869360E+02   -0.62860E-03   -0.13907E-02  8336   0.106E+00    0.185E-01
DAV:  12    -0.337683909687E+02    0.39597E-03   -0.32430E-03 10768   0.417E-01    0.145E-01
DAV:  13    -0.337682360026E+02    0.15497E-03   -0.10206E-03 10176   0.281E-01    0.386E-02
DAV:  14    -0.337682292281E+02    0.67745E-05   -0.11249E-04  9952   0.845E-02    0.180E-02
DAV:  15    -0.337682290268E+02    0.20128E-06   -0.51247E-06  8352   0.170E-02    0.177E-02
DAV:  16    -0.337682254483E+02    0.35785E-05   -0.74616E-06 10216   0.221E-02    0.197E-03
DAV:  17    -0.337682254433E+02    0.49640E-08   -0.10139E-06 10800   0.692E-03    0.298E-03
DAV:  18    -0.337682254408E+02    0.25320E-08   -0.18300E-07  9184   0.351E-03    0.873E-04
DAV:  19    -0.337682254557E+02   -0.14878E-07   -0.19456E-08  5000   0.111E-03    0.149E-04
DAV:  20    -0.337682254591E+02   -0.34215E-08   -0.52763E-09  4400   0.618E-04
   3 F= -.33768225E+02 E0= -.33767488E+02  d E =-.217384E+01  mag=     0.0001
       N       E                     dE             d eps       ncg     rms          rms(c)
DAV:   1    -0.354382993739E+02   -0.16701E+01   -0.22144E+01  9136   0.687E+01    0.139E+01
DAV:   2    -0.414829800962E+02   -0.60447E+01   -0.49648E+01  9104   0.732E+01    0.225E+01
DAV:   3    -0.340474962041E+02    0.74355E+01   -0.20080E+01  8992   0.534E+01    0.239E+00
DAV:   4    -0.342916807909E+02   -0.24418E+00   -0.26646E+00 10896   0.163E+01    0.718E+00
DAV:   5    -0.340936738228E+02    0.19801E+00   -0.12800E+00  9344   0.124E+01    0.257E+00
DAV:   6    -0.340403414684E+02    0.53332E-01   -0.24979E-01  9328   0.461E+00    0.331E-01
DAV:   7    -0.340397081265E+02    0.63334E-03   -0.72495E-03  8192   0.705E-01    0.170E-01
DAV:   8    -0.340394839734E+02    0.22415E-03   -0.12689E-03  9088   0.314E-01    0.384E-02
DAV:   9    -0.340394761093E+02    0.78640E-05   -0.11425E-04 10400   0.818E-02    0.160E-02
DAV:  10    -0.340394721226E+02    0.39867E-05   -0.15290E-05  8848   0.429E-02    0.274E-03
DAV:  11    -0.340394718079E+02    0.31475E-06   -0.86966E-07  9200   0.852E-03    0.147E-03
DAV:  12    -0.340394718372E+02   -0.29328E-07   -0.18849E-07  8376   0.371E-03    0.287E-04
DAV:  13    -0.340394718379E+02   -0.72396E-09   -0.10261E-08  5456   0.100E-03
   4 F= -.34039472E+02 E0= -.34039461E+02  d E =-.271246E+00  mag=    -0.0000
       N       E                     dE             d eps       ncg     rms          rms(c)
DAV:   1    -0.348807165896E+02   -0.84124E+00   -0.12420E+01  9224   0.518E+01    0.103E+01
DAV:   2    -0.382703896188E+02   -0.33897E+01   -0.29247E+01  9232   0.547E+01    0.177E+01
DAV:   3    -0.341008030243E+02    0.41696E+01   -0.12588E+01  9040   0.399E+01    0.151E+00
DAV:   4    -0.341849806190E+02   -0.84178E-01   -0.10073E+00 10912   0.940E+00    0.390E+00
DAV:   5    -0.341230695513E+02    0.61911E-01   -0.45139E-01  9328   0.816E+00    0.162E+00
DAV:   6    -0.341024662644E+02    0.20603E-01   -0.85059E-02  9232   0.290E+00    0.168E-01
DAV:   7    -0.341023949845E+02    0.71280E-04   -0.35165E-03  8384   0.440E-01    0.908E-02
DAV:   8    -0.341023319261E+02    0.63058E-04   -0.39107E-04  8904   0.176E-01    0.217E-02
DAV:   9    -0.341023333129E+02   -0.13867E-05   -0.50887E-05 10224   0.582E-02    0.157E-02
DAV:  10    -0.341023302095E+02    0.31034E-05   -0.14729E-05  8800   0.428E-02    0.341E-03
DAV:  11    -0.341023299159E+02    0.29358E-06   -0.69604E-07  9424   0.800E-03    0.506E-04
DAV:  12    -0.341023299251E+02   -0.92459E-08   -0.56233E-08  7720   0.152E-03
   5 F= -.34102330E+02 E0= -.34102110E+02  d E =-.334104E+00  mag=     0.0000
       N       E                     dE             d eps       ncg     rms          rms(c)
DAV:   1    -0.352550457497E+02   -0.11527E+01   -0.15794E+01  8672   0.786E+01    0.118E+01
DAV:   2    -0.404382254025E+02   -0.51832E+01   -0.54673E+01  9520   0.664E+01    0.264E+01
DAV:   3    -0.342026018947E+02    0.62356E+01   -0.24084E+01  9584   0.453E+01    0.324E+00
DAV:   4    -0.342962379082E+02   -0.93636E-01   -0.14885E+00 10384   0.158E+01    0.480E+00
DAV:   5    -0.341653084614E+02    0.13093E+00   -0.75410E-01  9600   0.109E+01    0.120E+00
DAV:   6    -0.341517516753E+02    0.13557E-01   -0.63292E-02 10000   0.231E+00    0.161E-01
DAV:   7    -0.341517423254E+02    0.93499E-05   -0.43408E-03  8304   0.546E-01    0.783E-02
DAV:   8    -0.341516946786E+02    0.47647E-04   -0.39654E-04  8992   0.205E-01    0.649E-02
DAV:   9    -0.341516684647E+02    0.26214E-04   -0.16351E-04  9696   0.117E-01    0.118E-02
DAV:  10    -0.341516685521E+02   -0.87446E-07   -0.68839E-06  8648   0.246E-02    0.382E-03
DAV:  11    -0.341516687519E+02   -0.19976E-06   -0.50319E-07  9088   0.634E-03    0.145E-03
DAV:  12    -0.341516688363E+02   -0.84392E-07   -0.39714E-08  6888   0.180E-03    0.546E-04
DAV:  13    -0.341516688466E+02   -0.10352E-07   -0.11769E-08  4728   0.860E-04    0.746E-05
DAV:  14    -0.341516688473E+02   -0.64210E-09   -0.26383E-09  4456   0.507E-04
   6 F= -.34151669E+02 E0= -.34151344E+02  d E =-.493389E-01  mag=     0.0000
       N       E                     dE             d eps       ncg     rms          rms(c)
DAV:   1    -0.344133239175E+02   -0.26166E+00   -0.35660E+00  8624   0.375E+01    0.586E+00
DAV:   2    -0.357872861659E+02   -0.13740E+01   -0.12867E+01  9520   0.329E+01    0.133E+01
DAV:   3    -0.341664037830E+02    0.16209E+01   -0.60194E+00  9296   0.234E+01    0.139E+00
DAV:   4    -0.341872143628E+02   -0.20811E-01   -0.29276E-01 10640   0.664E+00    0.204E+00
DAV:   5    -0.341589557559E+02    0.28259E-01   -0.11833E-01  9744   0.514E+00    0.468E-01
DAV:   6    -0.341574617815E+02    0.14940E-02   -0.10683E-02  9040   0.879E-01    0.803E-02
DAV:   7    -0.341574059696E+02    0.55812E-04   -0.74430E-04  8688   0.309E-01    0.539E-02
DAV:   8    -0.341573933451E+02    0.12625E-04   -0.74123E-05  9248   0.876E-02    0.106E-02
DAV:   9    -0.341573938312E+02   -0.48610E-06   -0.11630E-05  9152   0.264E-02    0.561E-03
DAV:  10    -0.341573939017E+02   -0.70570E-07   -0.13582E-06  8704   0.118E-02    0.101E-03
DAV:  11    -0.341573940373E+02   -0.13555E-06   -0.92310E-08  8784   0.382E-03    0.692E-04
DAV:  12    -0.341573940536E+02   -0.16273E-07   -0.10142E-08  4992   0.119E-03    0.105E-04
DAV:  13    -0.341573940595E+02   -0.59299E-08   -0.27427E-09  4496   0.390E-04
   7 F= -.34157394E+02 E0= -.34157093E+02  d E =-.550641E-01  mag=    -0.0000
       N       E                     dE             d eps       ncg     rms          rms(c)
DAV:   1    -0.342475857441E+02   -0.90192E-01   -0.13047E+01  8896   0.990E+01    0.741E+00
DAV:   2    -0.362324994332E+02   -0.19849E+01   -0.17436E+01  9360   0.407E+01    0.127E+01
DAV:   3    -0.342186598133E+02    0.20138E+01   -0.71163E+00  9024   0.290E+01    0.180E+00
DAV:   4    -0.343103413619E+02   -0.91682E-01   -0.92113E-01 10576   0.131E+01    0.448E+00
DAV:   5    -0.342023657779E+02    0.10798E+00   -0.69744E-01  9888   0.956E+00    0.945E-01
DAV:   6    -0.341971453218E+02    0.52205E-02   -0.48895E-02  8560   0.216E+00    0.177E-01
DAV:   7    -0.341968859038E+02    0.25942E-03   -0.25590E-03  8704   0.505E-01    0.711E-02
DAV:   8    -0.341968817638E+02    0.41399E-05   -0.34679E-04  9600   0.190E-01    0.423E-02
DAV:   9    -0.341968739038E+02    0.78600E-05   -0.73178E-05  8864   0.120E-01    0.943E-03
DAV:  10    -0.341968737304E+02    0.17346E-06   -0.13375E-05  8960   0.326E-02    0.945E-03
DAV:  11    -0.341968727155E+02    0.10149E-05   -0.44237E-06  8672   0.232E-02    0.114E-03
DAV:  12    -0.341968726842E+02    0.31256E-07   -0.17095E-07  8512   0.414E-03    0.458E-04
DAV:  13    -0.341968726489E+02    0.35323E-07   -0.77385E-09  4688   0.101E-03    0.115E-04
DAV:  14    -0.341968726448E+02    0.40909E-08   -0.20107E-09  4368   0.419E-04
   8 F= -.34196873E+02 E0= -.34196670E+02  d E =-.394786E-01  mag=    -0.0000
       N       E                     dE             d eps       ncg     rms          rms(c)
DAV:   1    -0.342582846136E+02   -0.61412E-01   -0.10855E+01  8976   0.899E+01    0.675E+00
DAV:   2    -0.358885283643E+02   -0.16302E+01   -0.14548E+01  9328   0.373E+01    0.116E+01
DAV:   3    -0.342305399386E+02    0.16580E+01   -0.59564E+00  9040   0.268E+01    0.178E+00
DAV:   4    -0.343106630439E+02   -0.80123E-01   -0.83923E-01 10352   0.127E+01    0.413E+00
DAV:   5    -0.342132488519E+02    0.97414E-01   -0.58338E-01  9808   0.892E+00    0.795E-01
DAV:   6    -0.342096523108E+02    0.35965E-02   -0.38770E-02  8512   0.187E+00    0.147E-01
DAV:   7    -0.342094708048E+02    0.18151E-03   -0.19489E-03  8656   0.447E-01    0.644E-02
DAV:   8    -0.342094690109E+02    0.17939E-05   -0.25893E-04  9216   0.159E-01    0.370E-02
DAV:   9    -0.342094632162E+02    0.57947E-05   -0.73031E-05  8880   0.118E-01    0.964E-03
DAV:  10    -0.342094628319E+02    0.38431E-06   -0.72134E-06  8496   0.273E-02    0.725E-03
DAV:  11    -0.342094621222E+02    0.70966E-06   -0.23144E-06  8816   0.165E-02    0.797E-04
DAV:  12    -0.342094620919E+02    0.30341E-07   -0.10159E-07  8224   0.310E-03    0.305E-04
DAV:  13    -0.342094620685E+02    0.23325E-07   -0.46260E-09  4688   0.747E-04    0.182E-04
DAV:  14    -0.342094620679E+02    0.63665E-09   -0.19413E-09  4336   0.515E-04
   9 F= -.34209462E+02 E0= -.34209558E+02  d E =-.520680E-01  mag=    -0.0000
       N       E                     dE             d eps       ncg     rms          rms(c)
DAV:   1    -0.335068889793E+02    0.70257E+00   -0.23398E+01 10648   0.152E+02    0.333E+00
DAV:   2    -0.343221902513E+02   -0.81530E+00   -0.91521E+00  8000   0.236E+01    0.284E+00
DAV:   3    -0.342979844518E+02    0.24206E-01   -0.76276E-01 10440   0.922E+00    0.217E+00
DAV:   4    -0.342914840858E+02    0.65004E-02   -0.39019E-01  9944   0.914E+00    0.242E+00
DAV:   5    -0.342529063956E+02    0.38578E-01   -0.23425E-01  9616   0.711E+00    0.722E-01
DAV:   6    -0.342490812699E+02    0.38251E-02   -0.27639E-02 10448   0.196E+00    0.109E-01
DAV:   7    -0.342491359246E+02   -0.54655E-04   -0.22846E-03  8536   0.512E-01    0.587E-02
DAV:   8    -0.342491510737E+02   -0.15149E-04   -0.10668E-04  9984   0.104E-01    0.238E-02
DAV:   9    -0.342491584850E+02   -0.74112E-05   -0.17888E-05  8520   0.338E-02    0.602E-03
DAV:  10    -0.342491580749E+02    0.41010E-06   -0.17490E-06 10040   0.177E-02    0.218E-03
DAV:  11    -0.342491579952E+02    0.79608E-07   -0.29496E-07  9856   0.683E-03    0.701E-04
DAV:  12    -0.342491579952E+02    0.10914E-10   -0.30065E-08  6552   0.216E-03
  10 F= -.34249158E+02 E0= -.34249389E+02  d E =-.396959E-01  mag=     0.0000
       N       E                     dE             d eps       ncg     rms          rms(c)
DAV:   1    -0.315109696414E+02    0.27382E+01   -0.88992E+01 10480   0.285E+02    0.615E+00
DAV:   2    -0.344688199173E+02   -0.29579E+01   -0.33498E+01  8144   0.448E+01    0.424E+00
DAV:   3    -0.344755614372E+02   -0.67415E-02   -0.20713E+00 10496   0.149E+01    0.407E+00
DAV:   4    -0.343498888380E+02    0.12567E+00   -0.88431E-01  9968   0.140E+01    0.314E+00
DAV:   5    -0.343472910766E+02    0.25978E-02   -0.99580E-01  9696   0.124E+01    0.286E+00
DAV:   6    -0.342893660786E+02    0.57925E-01   -0.22897E-01  9536   0.622E+00    0.267E-01
DAV:   7    -0.342897624294E+02   -0.39635E-03   -0.14376E-02  8624   0.974E-01    0.118E-01
DAV:   8    -0.342898129920E+02   -0.50563E-04   -0.76962E-04  9056   0.313E-01    0.480E-02
DAV:   9    -0.342898454581E+02   -0.32466E-04   -0.62998E-05  9536   0.840E-02    0.187E-02
DAV:  10    -0.342898443360E+02    0.11222E-05   -0.12100E-05 10528   0.513E-02    0.365E-03
DAV:  11    -0.342898441985E+02    0.13748E-06   -0.10973E-06  9216   0.114E-02    0.630E-04
DAV:  12    -0.342898441914E+02    0.70650E-08   -0.57717E-08  8528   0.300E-03
  11 F= -.34289844E+02 E0= -.34290089E+02  d E =-.803821E-01  mag=     0.0000
       N       E                     dE             d eps       ncg     rms          rms(c)
DAV:   1    -0.333580771427E+02    0.93177E+00   -0.49657E+01 10400   0.216E+02    0.109E+01
DAV:   2    -0.384105047745E+02   -0.50524E+01   -0.46595E+01  9200   0.661E+01    0.169E+01
DAV:   3    -0.343590153038E+02    0.40515E+01   -0.13174E+01  9056   0.437E+01    0.219E+00
DAV:   4    -0.344340467937E+02   -0.75031E-01   -0.12243E+00 11648   0.112E+01    0.440E+00
DAV:   5    -0.343489264388E+02    0.85120E-01   -0.88999E-01  9664   0.108E+01    0.176E+00
DAV:   6    -0.343293571391E+02    0.19569E-01   -0.13045E-01  9152   0.404E+00    0.572E-01
DAV:   7    -0.343261451845E+02    0.32120E-02   -0.12235E-02  9168   0.109E+00    0.132E-01
DAV:   8    -0.343261518843E+02   -0.66998E-05   -0.18735E-03  8656   0.364E-01    0.557E-02
DAV:   9    -0.343261400075E+02    0.11877E-04   -0.21193E-04  8592   0.167E-01    0.224E-02
DAV:  10    -0.343261386171E+02    0.13904E-05   -0.30736E-05  9312   0.507E-02    0.683E-03
DAV:  11    -0.343261379620E+02    0.65514E-06   -0.35215E-06  8352   0.155E-02    0.184E-03
DAV:  12    -0.343261378118E+02    0.15017E-06   -0.24650E-07  9360   0.539E-03    0.375E-04
DAV:  13    -0.343261377928E+02    0.19032E-07   -0.21976E-08  5632   0.152E-03    0.369E-04
DAV:  14    -0.343261377888E+02    0.40363E-08   -0.10788E-08  4384   0.136E-03
  12 F= -.34326138E+02 E0= -.34326385E+02  d E =-.362936E-01  mag=     0.0000
       N       E                     dE             d eps       ncg     rms          rms(c)
DAV:   1    -0.343216485617E+02    0.44892E-02   -0.19034E-01  9184   0.139E+01    0.601E-01
DAV:   2    -0.343374494872E+02   -0.15801E-01   -0.15680E-01  9520   0.376E+00    0.973E-01
DAV:   3    -0.343266415980E+02    0.10808E-01   -0.47219E-02  9136   0.240E+00    0.202E-01
DAV:   4    -0.343265240450E+02    0.11755E-03   -0.29524E-03 10592   0.726E-01    0.204E-01
DAV:   5    -0.343263451426E+02    0.17890E-03   -0.25454E-03  9808   0.788E-01    0.123E-01
DAV:   6    -0.343262383478E+02    0.10679E-03   -0.46891E-04 10208   0.315E-01    0.115E-02
DAV:   7    -0.343262389199E+02   -0.57206E-06   -0.36321E-05  8496   0.492E-02    0.811E-03
DAV:   8    -0.343262386183E+02    0.30158E-06   -0.18007E-06  9440   0.154E-02    0.302E-03
DAV:   9    -0.343262385421E+02    0.76145E-07   -0.33806E-07 10240   0.496E-03    0.710E-04
DAV:  10    -0.343262385027E+02    0.39421E-07   -0.28582E-08  6496   0.177E-03    0.161E-04
DAV:  11    -0.343262384859E+02    0.16840E-07   -0.40315E-09  4224   0.712E-04    0.121E-04
DAV:  12    -0.343262384809E+02    0.49495E-08   -0.11788E-09  4032   0.370E-04
  13 F= -.34326238E+02 E0= -.34326497E+02  d E =-.363943E-01  mag=     0.0000
       N       E                     dE             d eps       ncg     rms          rms(c)
DAV:   1    -0.337543571762E+02    0.57188E+00   -0.30078E+01  8768   0.161E+02    0.825E+00
DAV:   2    -0.364892590538E+02   -0.27349E+01   -0.29251E+01  8976   0.495E+01    0.147E+01
DAV:   3    -0.344248370407E+02    0.20644E+01   -0.95127E+00  9184   0.296E+01    0.313E+00
DAV:   4    -0.344492509007E+02   -0.24414E-01   -0.92950E-01 10688   0.138E+01    0.419E+00
DAV:   5    -0.343462840652E+02    0.10297E+00   -0.73612E-01  9872   0.109E+01    0.113E+00
DAV:   6    -0.343356826256E+02    0.10601E-01   -0.50009E-02 10816   0.285E+00    0.281E-01
DAV:   7    -0.343354296559E+02    0.25297E-03   -0.57037E-03  9408   0.609E-01    0.838E-02
DAV:   8    -0.343354336869E+02   -0.40310E-05   -0.29863E-04  8496   0.208E-01    0.447E-02
DAV:   9    -0.343354327901E+02    0.89675E-06   -0.67381E-05 10160   0.759E-02    0.897E-03
DAV:  10    -0.343354327044E+02    0.85698E-07   -0.46877E-06  8800   0.271E-02    0.230E-03
DAV:  11    -0.343354327809E+02   -0.76432E-07   -0.43554E-07  9168   0.611E-03    0.579E-04
DAV:  12    -0.343354327701E+02    0.10783E-07   -0.48711E-08  7520   0.278E-03    0.413E-04
DAV:  13    -0.343354327741E+02   -0.40509E-08   -0.69206E-09  4448   0.106E-03
  14 F= -.34335433E+02 E0= -.34335372E+02  d E =-.919429E-02  mag=    -0.0000
       N       E                     dE             d eps       ncg     rms          rms(c)
DAV:   1    -0.342944076774E+02    0.41025E-01   -0.27742E+00  9280   0.513E+01    0.265E+00
DAV:   2    -0.345634389572E+02   -0.26903E+00   -0.25195E+00  9136   0.157E+01    0.437E+00
DAV:   3    -0.343446305047E+02    0.21881E+00   -0.83209E-01  9088   0.106E+01    0.983E-01
DAV:   4    -0.343496147892E+02   -0.49843E-02   -0.11887E-01 10032   0.516E+00    0.130E+00
DAV:   5    -0.343380981965E+02    0.11517E-01   -0.54707E-02  9856   0.307E+00    0.218E-01
DAV:   6    -0.343377932970E+02    0.30490E-03   -0.36487E-03  8672   0.541E-01    0.469E-02
DAV:   7    -0.343377737935E+02    0.19504E-04   -0.49807E-04  8448   0.224E-01    0.526E-02
DAV:   8    -0.343377559432E+02    0.17850E-04   -0.72776E-05  8624   0.906E-02    0.140E-02
DAV:   9    -0.343377553935E+02    0.54962E-06   -0.89544E-06  9952   0.262E-02    0.350E-03
DAV:  10    -0.343377551371E+02    0.25649E-06   -0.73941E-07  8416   0.784E-03    0.902E-04
DAV:  11    -0.343377550738E+02    0.63221E-07   -0.45125E-08  8000   0.230E-03    0.264E-04
DAV:  12    -0.343377550642E+02    0.96134E-08   -0.50881E-09  4480   0.741E-04
  15 F= -.34337755E+02 E0= -.34337963E+02  d E =-.115166E-01  mag=    -0.0000
       N       E                     dE             d eps       ncg     rms          rms(c)
DAV:   1    -0.343538587789E+02   -0.16104E-01   -0.14789E+00  9920   0.231E+01    0.166E+00
DAV:   2    -0.343638016289E+02   -0.99429E-02   -0.40915E-01  8608   0.665E+00    0.121E+00
DAV:   3    -0.343573114239E+02    0.64902E-02   -0.11084E-01  9296   0.393E+00    0.113E+00
DAV:   4    -0.343589664783E+02   -0.16551E-02   -0.13656E-01  9712   0.534E+00    0.159E+00
DAV:   5    -0.343440296687E+02    0.14937E-01   -0.85013E-02  9728   0.358E+00    0.833E-02
DAV:   6    -0.343441267400E+02   -0.97071E-04   -0.29491E-03  8048   0.425E-01    0.459E-02
DAV:   7    -0.343441092009E+02    0.17539E-04   -0.10750E-04 10752   0.105E-01    0.200E-02
DAV:   8    -0.343441109723E+02   -0.17714E-05   -0.15252E-05  8576   0.387E-02    0.646E-03
DAV:   9    -0.343441112099E+02   -0.23756E-06   -0.24704E-06  8896   0.185E-02    0.207E-03
DAV:  10    -0.343441111397E+02    0.70202E-07   -0.16310E-07  8696   0.470E-03    0.382E-04
DAV:  11    -0.343441111231E+02    0.16620E-07   -0.14819E-08  4808   0.129E-03    0.160E-04
DAV:  12    -0.343441111214E+02    0.17008E-08   -0.35464E-09  4240   0.612E-04
  16 F= -.34344111E+02 E0= -.34344239E+02  d E =-.635606E-02  mag=    -0.0000
       N       E                     dE             d eps       ncg     rms          rms(c)
DAV:   1    -0.343462271532E+02   -0.21160E-02   -0.23064E-01  9920   0.917E+00    0.653E-01
DAV:   2    -0.343478520111E+02   -0.16249E-02   -0.63816E-02  8592   0.266E+00    0.486E-01
DAV:   3    -0.343466136319E+02    0.12384E-02   -0.17163E-02  9312   0.147E+00    0.421E-01
DAV:   4    -0.343465206946E+02    0.92937E-04   -0.17195E-02  9872   0.191E+00    0.550E-01
DAV:   5    -0.343446647376E+02    0.18560E-02   -0.10096E-02  9680   0.147E+00    0.311E-02
DAV:   6    -0.343446801360E+02   -0.15398E-04   -0.40550E-04  8080   0.163E-01    0.173E-02
DAV:   7    -0.343446776523E+02    0.24837E-05   -0.15460E-05 10656   0.398E-02    0.774E-03
DAV:   8    -0.343446778676E+02   -0.21529E-06   -0.21465E-06  8840   0.144E-02    0.243E-03
DAV:   9    -0.343446778823E+02   -0.14636E-07   -0.34773E-07  8800   0.651E-03    0.712E-04
DAV:  10    -0.343446778607E+02    0.21562E-07   -0.18059E-08  5120   0.152E-03    0.139E-04
DAV:  11    -0.343446778541E+02    0.66138E-08   -0.35185E-09  4320   0.567E-04
  17 F= -.34344678E+02 E0= -.34344841E+02  d E =-.692279E-02  mag=    -0.0000
       N       E                     dE             d eps       ncg     rms          rms(c)
DAV:   1    -0.344363246261E+02   -0.91647E-01   -0.12758E+00  8752   0.182E+01    0.333E+00
DAV:   2    -0.347706168926E+02   -0.33429E+00   -0.30924E+00  9296   0.183E+01    0.602E+00
DAV:   3    -0.343490269887E+02    0.42159E+00   -0.14574E+00  9184   0.132E+01    0.549E-01
DAV:   4    -0.343509975997E+02   -0.19706E-02   -0.53492E-02  9568   0.225E+00    0.688E-01
DAV:   5    -0.343491491108E+02    0.18485E-02   -0.24246E-02  9936   0.242E+00    0.433E-01
DAV:   6    -0.343478488113E+02    0.13003E-02   -0.60032E-03  9440   0.104E+00    0.481E-02
DAV:   7    -0.343478618544E+02   -0.13043E-04   -0.40769E-04  8560   0.170E-01    0.173E-02
DAV:   8    -0.343478594697E+02    0.23847E-05   -0.16723E-05  8432   0.377E-02    0.707E-03
DAV:   9    -0.343478591425E+02    0.32721E-06   -0.20696E-06  8840   0.132E-02    0.164E-03
DAV:  10    -0.343478589119E+02    0.23053E-06   -0.21576E-07  8672   0.484E-03    0.743E-04
DAV:  11    -0.343478588496E+02    0.62346E-07   -0.18350E-08  5072   0.146E-03    0.142E-04
DAV:  12    -0.343478588320E+02    0.17595E-07   -0.36564E-09  4392   0.549E-04    0.423E-05
DAV:  13    -0.343478588337E+02   -0.16898E-08   -0.67222E-10  4312   0.261E-04
  18 F= -.34347859E+02 E0= -.34347820E+02  d E =-.318098E-02  mag=     0.0000
       N       E                     dE             d eps       ncg     rms          rms(c)
DAV:   1    -0.344107864620E+02   -0.62928E-01   -0.89243E-01  8720   0.152E+01    0.277E+00
DAV:   2    -0.346378656794E+02   -0.22708E+00   -0.21277E+00  9280   0.152E+01    0.499E+00
DAV:   3    -0.343498336181E+02    0.28803E+00   -0.10003E+00  9160   0.109E+01    0.473E-01
DAV:   4    -0.343518021182E+02   -0.19685E-02   -0.40623E-02 10248   0.222E+00    0.686E-01
DAV:   5    -0.343493971949E+02    0.24049E-02   -0.19960E-02  9960   0.222E+00    0.304E-01
DAV:   6    -0.343487405254E+02    0.65667E-03   -0.31632E-03  8952   0.710E-01    0.386E-02
DAV:   7    -0.343487455300E+02   -0.50046E-05   -0.22709E-04  8576   0.127E-01    0.138E-02
DAV:   8    -0.343487441766E+02    0.13534E-05   -0.10617E-05  8512   0.323E-02    0.535E-03
DAV:   9    -0.343487438564E+02    0.32016E-06   -0.13638E-06  8752   0.112E-02    0.138E-03
DAV:  10    -0.343487436681E+02    0.18829E-06   -0.11760E-07  9080   0.375E-03    0.558E-04
DAV:  11    -0.343487436097E+02    0.58424E-07   -0.10578E-08  4832   0.118E-03    0.156E-04
DAV:  12    -0.343487435955E+02    0.14164E-07   -0.24779E-09  4312   0.487E-04    0.354E-05
DAV:  13    -0.343487435952E+02    0.29468E-09   -0.54414E-10  4288   0.236E-04
  19 F= -.34348744E+02 E0= -.34348544E+02  d E =-.406574E-02  mag=     0.0000
       N       E                     dE             d eps       ncg     rms          rms(c)
DAV:   1    -0.343509341042E+02   -0.21905E-02   -0.79020E-02 10016   0.460E+00    0.386E-01
DAV:   2    -0.343508434474E+02    0.90657E-04   -0.17476E-02  8488   0.144E+00    0.271E-01
DAV:   3    -0.343512202697E+02   -0.37682E-03   -0.10272E-02  9832   0.144E+00    0.404E-01
DAV:   4    -0.343506062707E+02    0.61400E-03   -0.10894E-02  9840   0.165E+00    0.294E-01
DAV:   5    -0.343499525331E+02    0.65374E-03   -0.27114E-03  9880   0.743E-01    0.155E-02
DAV:   6    -0.343499573526E+02   -0.48194E-05   -0.14294E-04  8240   0.972E-02    0.116E-02
DAV:   7    -0.343499565985E+02    0.75410E-06   -0.59728E-06 10048   0.205E-02    0.485E-03
DAV:   8    -0.343499567156E+02   -0.11715E-06   -0.84596E-07  9440   0.131E-02    0.130E-03
DAV:   9    -0.343499567344E+02   -0.18807E-07   -0.11498E-07  8784   0.392E-03    0.476E-04
DAV:  10    -0.343499567348E+02   -0.35652E-09   -0.64936E-09  4464   0.883E-04
  20 F= -.34349957E+02 E0= -.34349740E+02  d E =-.121314E-02  mag=    -0.0000
       N       E                     dE             d eps       ncg     rms          rms(c)
DAV:   1    -0.343621312502E+02   -0.12175E-01   -0.71326E-01 10000   0.138E+01    0.116E+00
DAV:   2    -0.343615119775E+02    0.61927E-03   -0.15967E-01  8496   0.437E+00    0.832E-01
DAV:   3    -0.343643498032E+02   -0.28378E-02   -0.90675E-02  9728   0.432E+00    0.122E+00
DAV:   4    -0.343595830316E+02    0.47668E-02   -0.10552E-01  9808   0.460E+00    0.922E-01
DAV:   5    -0.343531288567E+02    0.64542E-02   -0.25607E-02  9824   0.228E+00    0.545E-02
DAV:   6    -0.343531677194E+02   -0.38863E-04   -0.13890E-03  8224   0.293E-01    0.357E-02
DAV:   7    -0.343531626827E+02    0.50368E-05   -0.70009E-05  9552   0.742E-02    0.149E-02
DAV:   8    -0.343531640341E+02   -0.13514E-05   -0.73480E-06  9440   0.378E-02    0.447E-03
DAV:   9    -0.343531643331E+02   -0.29900E-06   -0.10307E-06  9376   0.113E-02    0.142E-03
DAV:  10    -0.343531643243E+02    0.87784E-08   -0.82927E-08  8336   0.340E-03
  21 F= -.34353164E+02 E0= -.34353072E+02  d E =-.442073E-02  mag=     0.0000
       N       E                     dE             d eps       ncg     rms          rms(c)
DAV:   1    -0.343937843063E+02   -0.40620E-01   -0.28733E+00  9920   0.274E+01    0.235E+00
DAV:   2    -0.343935322768E+02    0.25203E-03   -0.66758E-01  8608   0.882E+00    0.178E+00
DAV:   3    -0.343995289260E+02   -0.59966E-02   -0.36293E-01  9632   0.907E+00    0.249E+00
DAV:   4    -0.343853200176E+02    0.14209E-01   -0.47593E-01  9920   0.847E+00    0.197E+00
DAV:   5    -0.343557054769E+02    0.29615E-01   -0.11170E-01  9808   0.445E+00    0.178E-01
DAV:   6    -0.343556958227E+02    0.96542E-05   -0.64267E-03  8304   0.663E-01    0.733E-02
DAV:   7    -0.343556887589E+02    0.70638E-05   -0.43901E-04  9008   0.194E-01    0.325E-02
DAV:   8    -0.343556937997E+02   -0.50408E-05   -0.36147E-05  9536   0.783E-02    0.106E-02
DAV:   9    -0.343556954645E+02   -0.16648E-05   -0.57015E-06  8992   0.285E-02    0.300E-03
DAV:  10    -0.343556954142E+02    0.50342E-07   -0.49703E-07  8656   0.738E-03    0.767E-04
DAV:  11    -0.343556953917E+02    0.22459E-07   -0.50723E-08  7280   0.278E-03    0.377E-04
DAV:  12    -0.343556953901E+02    0.15571E-08   -0.14731E-08  4880   0.155E-03
  22 F= -.34355695E+02 E0= -.34355787E+02  d E =-.695179E-02  mag=     0.0000
       N       E                     dE             d eps       ncg     rms          rms(c)
DAV:   1    -0.343707507556E+02   -0.15055E-01   -0.17619E-01  8608   0.814E+00    0.131E+00
DAV:   2    -0.344212211138E+02   -0.50470E-01   -0.47415E-01  9200   0.722E+00    0.242E+00
DAV:   3    -0.343572477016E+02    0.63973E-01   -0.23931E-01  9056   0.505E+00    0.225E-01
DAV:   4    -0.343575618501E+02   -0.31415E-03   -0.66255E-03  9968   0.907E-01    0.268E-01
DAV:   5    -0.343571614162E+02    0.40043E-03   -0.29055E-03  9776   0.880E-01    0.114E-01
DAV:   6    -0.343570697519E+02    0.91664E-04   -0.42989E-04  9040   0.259E-01    0.139E-02
DAV:   7    -0.343570692972E+02    0.45476E-06   -0.28725E-05  8208   0.545E-02    0.630E-03
DAV:   8    -0.343570698064E+02   -0.50925E-06   -0.16059E-06  8912   0.102E-02    0.329E-03
DAV:   9    -0.343570699181E+02   -0.11170E-06   -0.86234E-07  8880   0.954E-03    0.144E-03
DAV:  10    -0.343570699682E+02   -0.50008E-07   -0.49685E-08  7584   0.261E-03    0.587E-04
DAV:  11    -0.343570699958E+02   -0.27616E-07   -0.12572E-08  4320   0.118E-03    0.848E-05
DAV:  12    -0.343570700078E+02   -0.12060E-07   -0.26735E-09  4160   0.384E-04    0.327E-05
DAV:  13    -0.343570700080E+02   -0.19463E-09   -0.32032E-10  4096   0.172E-04
  23 F= -.34357070E+02 E0= -.34357152E+02  d E =-.137462E-02  mag=    -0.0000
       N       E                     dE             d eps       ncg     rms          rms(c)
DAV:   1    -0.344072292675E+02   -0.50159E-01   -0.63984E-01  8608   0.155E+01    0.247E+00
DAV:   2    -0.345891204269E+02   -0.18189E+00   -0.17187E+00  9232   0.137E+01    0.466E+00
DAV:   3    -0.343586728009E+02    0.23045E+00   -0.88474E-01  9136   0.950E+00    0.450E-01
DAV:   4    -0.343583265945E+02    0.34621E-03   -0.17200E-02  8784   0.999E-01    0.258E-01
DAV:   5    -0.343587592902E+02   -0.43270E-03   -0.74688E-03  9856   0.136E+00    0.372E-01
DAV:   6    -0.343578340388E+02    0.92525E-03   -0.40120E-03  9600   0.991E-01    0.321E-02
DAV:   7    -0.343578368301E+02   -0.27912E-05   -0.21010E-04  8368   0.116E-01    0.159E-02
DAV:   8    -0.343578370868E+02   -0.25678E-06   -0.12576E-05  9216   0.461E-02    0.809E-03
DAV:   9    -0.343578371805E+02   -0.93665E-07   -0.36060E-06  8864   0.224E-02    0.307E-03
DAV:  10    -0.343578372542E+02   -0.73742E-07   -0.32925E-07  9224   0.778E-03    0.125E-03
DAV:  11    -0.343578373034E+02   -0.49151E-07   -0.47041E-08  7248   0.212E-03    0.289E-04
DAV:  12    -0.343578373288E+02   -0.25364E-07   -0.46123E-09  4384   0.786E-04    0.840E-05
DAV:  13    -0.343578373332E+02   -0.44220E-08   -0.12163E-09  4112   0.405E-04
  24 F= -.34357837E+02 E0= -.34357920E+02  d E =-.214194E-02  mag=    -0.0000
       N       E                     dE             d eps       ncg     rms          rms(c)
DAV:   1    -0.343595334742E+02   -0.16961E-02   -0.21207E-02  8608   0.283E+00    0.458E-01
DAV:   2    -0.343657777800E+02   -0.62443E-02   -0.57761E-02  9168   0.252E+00    0.833E-01
DAV:   3    -0.343578967327E+02    0.78810E-02   -0.28241E-02  9056   0.178E+00    0.754E-02
DAV:   4    -0.343580072051E+02   -0.11047E-03   -0.12538E-03 10784   0.456E-01    0.138E-01
DAV:   5    -0.343578884947E+02    0.11871E-03   -0.59997E-04  9856   0.380E-01    0.353E-02
DAV:   6    -0.343578800416E+02    0.84531E-05   -0.57378E-05  8672   0.725E-02    0.584E-03
DAV:   7    -0.343578794741E+02    0.56745E-06   -0.31659E-06  8544   0.196E-02    0.265E-03
DAV:   8    -0.343578792415E+02    0.23264E-06   -0.22735E-07  8768   0.383E-03    0.825E-04
DAV:   9    -0.343578791688E+02    0.72716E-07   -0.55916E-08  7616   0.225E-03    0.294E-04
DAV:  10    -0.343578791450E+02    0.23807E-07   -0.46784E-09  4304   0.832E-04    0.743E-05
DAV:  11    -0.343578791371E+02    0.78726E-08   -0.68943E-10  4080   0.271E-04
  25 F= -.34357879E+02 E0= -.34357959E+02  d E =-.218375E-02  mag=    -0.0000
       N       E                     dE             d eps       ncg     rms          rms(c)
DAV:   1    -0.343568189753E+02    0.10602E-02   -0.10254E-01  8848   0.977E+00    0.500E-01
DAV:   2    -0.343659565676E+02   -0.91376E-02   -0.91289E-02  9328   0.296E+00    0.775E-01
DAV:   3    -0.343588581155E+02    0.70985E-02   -0.29097E-02  9072   0.183E+00    0.150E-01
DAV:   4    -0.343586635095E+02    0.19461E-03   -0.10607E-03  9040   0.362E-01    0.725E-02
DAV:   5    -0.343587991397E+02   -0.13563E-03   -0.14458E-03  9904   0.610E-01    0.163E-01
DAV:   6    -0.343586243854E+02    0.17475E-03   -0.77720E-04  9760   0.434E-01    0.110E-02
DAV:   7    -0.343586247705E+02   -0.38509E-06   -0.28669E-05  8512   0.367E-02    0.759E-03
DAV:   8    -0.343586244839E+02    0.28663E-06   -0.19298E-06  9952   0.186E-02    0.227E-03
DAV:   9    -0.343586243759E+02    0.10792E-06   -0.16964E-07  8560   0.385E-03    0.410E-04
DAV:  10    -0.343586243409E+02    0.35074E-07   -0.12452E-08  4704   0.131E-03    0.146E-04
DAV:  11    -0.343586243234E+02    0.17426E-07   -0.37136E-09  4272   0.610E-04    0.662E-05
DAV:  12    -0.343586243213E+02    0.21337E-08   -0.76296E-10  4112   0.290E-04
  26 F= -.34358624E+02 E0= -.34358693E+02  d E =-.745184E-03  mag=    -0.0000
       N       E                     dE             d eps       ncg     rms          rms(c)
DAV:   1    -0.343558811027E+02    0.27432E-02   -0.18212E-01  8848   0.130E+01    0.668E-01
DAV:   2    -0.343721158587E+02   -0.16235E-01   -0.16242E-01  9360   0.396E+00    0.103E+00
DAV:   3    -0.343594896251E+02    0.12626E-01   -0.51589E-02  9072   0.244E+00    0.199E-01
DAV:   4    -0.343591223185E+02    0.36731E-03   -0.17461E-03  8720   0.437E-01    0.704E-02
DAV:   5    -0.343593218823E+02   -0.19956E-03   -0.17021E-03 10080   0.652E-01    0.194E-01
DAV:   6    -0.343590789358E+02    0.24295E-03   -0.11295E-03  9760   0.523E-01    0.147E-02
DAV:   7    -0.343590793960E+02   -0.46027E-06   -0.42599E-05  8816   0.435E-02    0.941E-03
DAV:   8    -0.343590789653E+02    0.43071E-06   -0.30472E-06 10528   0.231E-02    0.276E-03
DAV:   9    -0.343590788256E+02    0.13975E-06   -0.23923E-07  8592   0.523E-03    0.517E-04
DAV:  10    -0.343590787781E+02    0.47454E-07   -0.14171E-08  5232   0.142E-03    0.149E-04
DAV:  11    -0.343590787588E+02    0.19367E-07   -0.41987E-09  4336   0.561E-04    0.630E-05
DAV:  12    -0.343590787567E+02    0.20955E-08   -0.84898E-10  4096   0.315E-04
  27 F= -.34359079E+02 E0= -.34359141E+02  d E =-.119962E-02  mag=    -0.0000
       N       E                     dE             d eps       ncg     rms          rms(c)
DAV:   1    -0.343589311687E+02    0.14759E-03   -0.93642E-03  8848   0.295E+00    0.151E-01
DAV:   2    -0.343597626324E+02   -0.83146E-03   -0.83271E-03  9328   0.893E-01    0.234E-01
DAV:   3    -0.343591188109E+02    0.64382E-03   -0.26652E-03  9088   0.551E-01    0.460E-02
DAV:   4    -0.343591016261E+02    0.17185E-04   -0.10442E-04  9136   0.120E-01    0.266E-02
DAV:   5    -0.343591107041E+02   -0.90780E-05   -0.14104E-04  9808   0.191E-01    0.460E-02
DAV:   6    -0.343590965483E+02    0.14156E-04   -0.61444E-05  9680   0.126E-01    0.332E-03
DAV:   7    -0.343590965203E+02    0.27934E-07   -0.25312E-06  8432   0.113E-02    0.231E-03
DAV:   8    -0.343590964824E+02    0.37968E-07   -0.18499E-07  9568   0.572E-03    0.714E-04
DAV:   9    -0.343590964448E+02    0.37602E-07   -0.14256E-08  4640   0.120E-03    0.118E-04
DAV:  10    -0.343590964335E+02    0.11227E-07   -0.28009E-09  4160   0.659E-04    0.488E-05
DAV:  11    -0.343590964290E+02    0.45129E-08   -0.63795E-10  4064   0.214E-04
  28 F= -.34359096E+02 E0= -.34359159E+02  d E =-.121729E-02  mag=    -0.0000
       N       E                     dE             d eps       ncg     rms          rms(c)
DAV:   1    -0.343573737145E+02    0.17227E-02   -0.58801E-02 10400   0.797E+00    0.129E-01
DAV:   2    -0.343594604220E+02   -0.20867E-02   -0.22180E-02  8096   0.108E+00    0.131E-01
DAV:   3    -0.343593723013E+02    0.88121E-04   -0.14874E-03  9856   0.453E-01    0.725E-02
DAV:   4    -0.343593704120E+02    0.18892E-05   -0.51247E-04  9568   0.352E-01    0.890E-02
DAV:   5    -0.343593178953E+02    0.52517E-04   -0.31258E-04  9744   0.287E-01    0.295E-02
DAV:   6    -0.343593098318E+02    0.80635E-05   -0.35825E-05 10976   0.745E-02    0.446E-03
DAV:   7    -0.343593100458E+02   -0.21404E-06   -0.36188E-06  8448   0.182E-02    0.176E-03
DAV:   8    -0.343593101242E+02   -0.78351E-07   -0.10899E-07  9392   0.362E-03    0.746E-04
DAV:   9    -0.343593101618E+02   -0.37620E-07   -0.10770E-08  4576   0.109E-03    0.175E-04
DAV:  10    -0.343593101618E+02   -0.40018E-10   -0.31605E-09  4288   0.842E-04
  29 F= -.34359310E+02 E0= -.34359377E+02  d E =-.213733E-03  mag=    -0.0000
       N       E                     dE             d eps       ncg     rms          rms(c)
DAV:   1    -0.343518933759E+02    0.74168E-02   -0.23204E-01 10400   0.158E+01    0.255E-01
DAV:   2    -0.343600927908E+02   -0.81994E-02   -0.87084E-02  8096   0.213E+00    0.259E-01
DAV:   3    -0.343597570902E+02    0.33570E-03   -0.58863E-03  9920   0.907E-01    0.147E-01
DAV:   4    -0.343597494246E+02    0.76657E-05   -0.20996E-03  9584   0.716E-01    0.178E-01
DAV:   5    -0.343595348386E+02    0.21459E-03   -0.12161E-03  9712   0.559E-01    0.571E-02
DAV:   6    -0.343595032416E+02    0.31597E-04   -0.13918E-04 10816   0.143E-01    0.886E-03
DAV:   7    -0.343595038697E+02   -0.62808E-06   -0.14269E-05  8496   0.368E-02    0.346E-03
DAV:   8    -0.343595040626E+02   -0.19293E-06   -0.43348E-07 10280   0.707E-03    0.149E-03
DAV:   9    -0.343595041527E+02   -0.90076E-07   -0.49689E-08  7424   0.218E-03    0.337E-04
DAV:  10    -0.343595041490E+02    0.37489E-08   -0.62990E-09  4432   0.127E-03
  30 F= -.34359504E+02 E0= -.34359577E+02  d E =-.407720E-03  mag=     0.0000
       N       E                     dE             d eps       ncg     rms          rms(c)
DAV:   1    -0.343593507468E+02    0.15341E-03   -0.10896E-02 10048   0.310E+00    0.117E-01
DAV:   2    -0.343598906150E+02   -0.53987E-03   -0.61822E-03  8960   0.720E-01    0.160E-01
DAV:   3    -0.343596308296E+02    0.25979E-03   -0.14655E-03  9136   0.462E-01    0.602E-02
DAV:   4    -0.343596551816E+02   -0.24352E-04   -0.50929E-04 10016   0.352E-01    0.926E-02
DAV:   5    -0.343595932897E+02    0.61892E-04   -0.25892E-04  9632   0.260E-01    0.787E-03
DAV:   6    -0.343595934003E+02   -0.11065E-06   -0.13663E-05  8272   0.282E-02    0.274E-03
DAV:   7    -0.343595933328E+02    0.67492E-07   -0.58034E-07 10224   0.768E-03    0.145E-03
DAV:   8    -0.343595933138E+02    0.19003E-07   -0.62160E-08  7680   0.270E-03    0.358E-04
DAV:   9    -0.343595933016E+02    0.12251E-07   -0.49982E-09  4304   0.705E-04    0.108E-04
DAV:  10    -0.343595932995E+02    0.20991E-08   -0.10951E-09  4112   0.302E-04
  31 F= -.34359593E+02 E0= -.34359671E+02  d E =-.891505E-04  mag=     0.0000
       N       E                     dE             d eps       ncg     rms          rms(c)
DAV:   1    -0.343590530268E+02    0.54027E-03   -0.27942E-02 10080   0.497E+00    0.188E-01
DAV:   2    -0.343604374808E+02   -0.13845E-02   -0.15886E-02  8960   0.115E+00    0.257E-01
DAV:   3    -0.343597687349E+02    0.66875E-03   -0.37622E-03  9136   0.741E-01    0.962E-02
DAV:   4    -0.343598321253E+02   -0.63390E-04   -0.13070E-03 10032   0.561E-01    0.148E-01
DAV:   5    -0.343596731424E+02    0.15898E-03   -0.66309E-04  9664   0.416E-01    0.125E-02
DAV:   6    -0.343596735686E+02   -0.42621E-06   -0.35047E-05  8240   0.449E-02    0.441E-03
DAV:   7    -0.343596734359E+02    0.13278E-06   -0.14733E-06 10304   0.123E-02    0.231E-03
DAV:   8    -0.343596734107E+02    0.25140E-07   -0.16287E-07  8864   0.435E-03    0.565E-04
DAV:   9    -0.343596733970E+02    0.13666E-07   -0.99976E-09  4560   0.953E-04    0.171E-04
DAV:  10    -0.343596733922E+02    0.48385E-08   -0.23177E-09  4240   0.537E-04
  32 F= -.34359673E+02 E0= -.34359757E+02  d E =-.169243E-03  mag=     0.0000
       N       E                     dE             d eps       ncg     rms          rms(c)
DAV:   1    -0.343602418333E+02   -0.56844E-03   -0.13516E-02  8752   0.289E+00    0.299E-01
DAV:   2    -0.343629554271E+02   -0.27136E-02   -0.25660E-02  9168   0.166E+00    0.533E-01
DAV:   3    -0.343597526540E+02    0.32028E-02   -0.11990E-02  9056   0.116E+00    0.632E-02
DAV:   4    -0.343598040226E+02   -0.51369E-04   -0.66801E-04 10784   0.361E-01    0.102E-01
DAV:   5    -0.343597361039E+02    0.67919E-04   -0.33030E-04  9840   0.288E-01    0.198E-02
DAV:   6    -0.343597345330E+02    0.15709E-05   -0.22714E-05  8800   0.434E-02    0.406E-03
DAV:   7    -0.343597345856E+02   -0.52620E-07   -0.23165E-06  8704   0.167E-02    0.353E-03
DAV:   8    -0.343597346126E+02   -0.26970E-07   -0.31714E-07  8736   0.602E-03    0.782E-04
DAV:   9    -0.343597346813E+02   -0.68745E-07   -0.26006E-08  6592   0.150E-03    0.155E-04
DAV:  10    -0.343597347034E+02   -0.22032E-07   -0.28799E-09  4288   0.424E-04    0.692E-05
DAV:  11    -0.343597347092E+02   -0.58917E-08   -0.47579E-10  4080   0.194E-04
  33 F= -.34359735E+02 E0= -.34359831E+02  d E =-.613170E-04  mag=    -0.0000
       N       E                     dE             d eps       ncg     rms          rms(c)
DAV:   1    -0.343599702757E+02   -0.23557E-03   -0.57782E-03  8752   0.189E+00    0.196E-01
DAV:   2    -0.343611293848E+02   -0.11591E-02   -0.10975E-02  9184   0.109E+00    0.348E-01
DAV:   3    -0.343597601024E+02    0.13693E-02   -0.51190E-03  9056   0.757E-01    0.410E-02
DAV:   4    -0.343597822687E+02   -0.22166E-04   -0.28466E-04 10784   0.235E-01    0.666E-02
DAV:   5    -0.343597534524E+02    0.28816E-04   -0.14161E-04  9840   0.188E-01    0.130E-02
DAV:   6    -0.343597528684E+02    0.58404E-06   -0.97294E-06  8720   0.286E-02    0.265E-03
DAV:   7    -0.343597529352E+02   -0.66821E-07   -0.98935E-07  8720   0.109E-02    0.230E-03
DAV:   8    -0.343597529686E+02   -0.33344E-07   -0.13439E-07  8576   0.392E-03    0.510E-04
DAV:   9    -0.343597530134E+02   -0.44811E-07   -0.93696E-09  4496   0.980E-04    0.971E-05
DAV:  10    -0.343597530276E+02   -0.14192E-07   -0.26835E-09  4096   0.442E-04    0.337E-05
DAV:  11    -0.343597530309E+02   -0.33160E-08   -0.44088E-10  4032   0.157E-04
  34 F= -.34359753E+02 E0= -.34359857E+02  d E =-.796387E-04  mag=     0.0000
       N       E                     dE             d eps       ncg     rms          rms(c)
DAV:   1    -0.343661075253E+02   -0.63545E-02   -0.58157E-02  8336   0.313E+00    0.861E-01
DAV:   2    -0.343884897136E+02   -0.22382E-01   -0.20810E-01  9264   0.472E+00    0.159E+00
DAV:   3    -0.343597453253E+02    0.28744E-01   -0.99890E-02  9088   0.336E+00    0.118E-01
DAV:   4    -0.343601495161E+02   -0.40419E-03   -0.45289E-03 10704   0.855E-01    0.241E-01
DAV:   5    -0.343598030401E+02    0.34648E-03   -0.16990E-03  9760   0.642E-01    0.743E-02
DAV:   6    -0.343597622093E+02    0.40831E-04   -0.19903E-04  8896   0.134E-01    0.878E-03
DAV:   7    -0.343597611465E+02    0.10628E-05   -0.69146E-06  8400   0.266E-02    0.296E-03
DAV:   8    -0.343597608402E+02    0.30637E-06   -0.10387E-06  8624   0.105E-02    0.722E-04
DAV:   9    -0.343597607457E+02    0.94489E-07   -0.86192E-08  8560   0.296E-03    0.549E-04
DAV:  10    -0.343597606753E+02    0.70411E-07   -0.59551E-09  4384   0.882E-04    0.124E-04
DAV:  11    -0.343597606593E+02    0.15914E-07   -0.13962E-09  4224   0.272E-04    0.308E-05
DAV:  12    -0.343597606572E+02    0.21118E-08   -0.23823E-10  4096   0.147E-04
  35 F= -.34359761E+02 E0= -.34359863E+02  d E =-.762635E-05  mag=     0.0000
       N       E                     dE             d eps       ncg     rms          rms(c)
DAV:   1    -0.343611261005E+02   -0.13654E-02   -0.12279E-02  8320   0.144E+00    0.393E-01
DAV:   2    -0.343657976533E+02   -0.46716E-02   -0.43811E-02  9264   0.215E+00    0.737E-01
DAV:   3    -0.343597855549E+02    0.60121E-02   -0.21622E-02  9104   0.153E+00    0.570E-02
DAV:   4    -0.343598698312E+02   -0.84276E-04   -0.93055E-04 10624   0.392E-01    0.111E-01
DAV:   5    -0.343597943669E+02    0.75464E-04   -0.36118E-04  9728   0.305E-01    0.333E-02
DAV:   6    -0.343597863347E+02    0.80322E-05   -0.41549E-05  8944   0.599E-02    0.455E-03
DAV:   7    -0.343597862687E+02    0.66015E-07   -0.16432E-06  8592   0.138E-02    0.126E-03
DAV:   8    -0.343597864115E+02   -0.14282E-06   -0.21482E-07  8624   0.473E-03    0.332E-04
DAV:   9    -0.343597864470E+02   -0.35501E-07   -0.16894E-08  4688   0.139E-03    0.249E-04
DAV:  10    -0.343597864808E+02   -0.33840E-07   -0.29694E-09  4240   0.609E-04    0.476E-05
DAV:  11    -0.343597864865E+02   -0.56552E-08   -0.53703E-10  4144   0.198E-04
  36 F= -.34359786E+02 E0= -.34359890E+02  d E =-.334556E-04  mag=     0.0000
       N       E                     dE             d eps       ncg     rms          rms(c)
DAV:   1    -0.343597824741E+02    0.40068E-05   -0.23457E-03  9120   0.119E+00    0.574E-02
DAV:   2    -0.343598421562E+02   -0.59682E-04   -0.93350E-04  8464   0.300E-01    0.485E-02
DAV:   3    -0.343598262488E+02    0.15907E-04   -0.14909E-04  9376   0.143E-01    0.330E-02
DAV:   4    -0.343598274244E+02   -0.11756E-05   -0.11558E-04  9888   0.172E-01    0.470E-02
DAV:   5    -0.343598131537E+02    0.14271E-04   -0.81386E-05  9552   0.141E-01    0.455E-03
DAV:   6    -0.343598131895E+02   -0.35798E-07   -0.35165E-06  8720   0.178E-02    0.132E-03
DAV:   7    -0.343598132065E+02   -0.16915E-07   -0.27156E-07  9888   0.501E-03    0.874E-04
DAV:   8    -0.343598132067E+02   -0.29650E-09   -0.37517E-08  7024   0.220E-03
  37 F= -.34359813E+02 E0= -.34359926E+02  d E =-.267203E-04  mag=    -0.0000
       N       E                     dE             d eps       ncg     rms          rms(c)
DAV:   1    -0.343595628405E+02    0.25037E-03   -0.20908E-02  9008   0.357E+00    0.172E-01
DAV:   2    -0.343601217129E+02   -0.55887E-03   -0.85765E-03  8496   0.905E-01    0.145E-01
DAV:   3    -0.343599759033E+02    0.14581E-03   -0.13433E-03  9424   0.430E-01    0.986E-02
DAV:   4    -0.343599833185E+02   -0.74153E-05   -0.10145E-03  9872   0.509E-01    0.139E-01
DAV:   5    -0.343598589600E+02    0.12436E-03   -0.72042E-04  9552   0.422E-01    0.145E-02
DAV:   6    -0.343598588236E+02    0.13638E-06   -0.31992E-05  8800   0.551E-02    0.394E-03
DAV:   7    -0.343598588563E+02   -0.32627E-07   -0.24801E-06  9760   0.151E-02    0.259E-03
DAV:   8    -0.343598588444E+02    0.11869E-07   -0.32768E-07  8400   0.639E-03    0.945E-04
DAV:   9    -0.343598588807E+02   -0.36303E-07   -0.33819E-08  7344   0.191E-03    0.270E-04
DAV:  10    -0.343598588844E+02   -0.36689E-08   -0.26353E-09  4256   0.699E-04
  38 F= -.34359859E+02 E0= -.34360001E+02  d E =-.723979E-04  mag=     0.0000
       N       E                     dE             d eps       ncg     rms          rms(c)
DAV:   1    -0.343599746350E+02   -0.11575E-03   -0.55128E-03  9616   0.161E+00    0.137E-01
DAV:   2    -0.343603355804E+02   -0.36095E-03   -0.42609E-03  9152   0.726E-01    0.199E-01
DAV:   3    -0.343599224297E+02    0.41315E-03   -0.17829E-03  9168   0.511E-01    0.648E-02
DAV:   4    -0.343599527156E+02   -0.30286E-04   -0.62473E-04  9696   0.389E-01    0.943E-02
DAV:   5    -0.343598867362E+02    0.65979E-04   -0.24323E-04  9520   0.246E-01    0.985E-03
DAV:   6    -0.343598869393E+02   -0.20307E-06   -0.15735E-05  8784   0.281E-02    0.286E-03
DAV:   7    -0.343598869341E+02    0.51514E-08   -0.59841E-07  9680   0.103E-02    0.154E-03
DAV:   8    -0.343598870040E+02   -0.69827E-07   -0.74031E-08  7920   0.241E-03    0.280E-04
DAV:   9    -0.343598870184E+02   -0.14456E-07   -0.70819E-09  4384   0.946E-04    0.142E-04
DAV:  10    -0.343598870282E+02   -0.97589E-08   -0.16586E-09  4272   0.488E-04
  39 F= -.34359887E+02 E0= -.34360039E+02  d E =-.281438E-04  mag=    -0.0000
       N       E                     dE             d eps       ncg     rms          rms(c)
DAV:   1    -0.343600287805E+02   -0.14176E-03   -0.84817E-03  9616   0.199E+00    0.170E-01
DAV:   2    -0.343605836604E+02   -0.55488E-03   -0.65441E-03  9152   0.900E-01    0.247E-01
DAV:   3    -0.343599493881E+02    0.63427E-03   -0.27403E-03  9168   0.633E-01    0.805E-02
DAV:   4    -0.343599953115E+02   -0.45923E-04   -0.96023E-04  9664   0.481E-01    0.117E-01
DAV:   5    -0.343598941386E+02    0.10117E-03   -0.37008E-04  9504   0.303E-01    0.123E-02
DAV:   6    -0.343598944304E+02   -0.29181E-06   -0.24389E-05  8784   0.350E-02    0.359E-03
DAV:   7    -0.343598944079E+02    0.22519E-07   -0.93904E-07  9696   0.129E-02    0.191E-03
DAV:   8    -0.343598944958E+02   -0.87861E-07   -0.11642E-07  8656   0.303E-03    0.346E-04
DAV:   9    -0.343598945130E+02   -0.17208E-07   -0.10480E-08  4704   0.111E-03    0.177E-04
DAV:  10    -0.343598945252E+02   -0.12240E-07   -0.24671E-09  4336   0.603E-04    0.292E-05
DAV:  11    -0.343598945275E+02   -0.22610E-08   -0.58705E-10  4176   0.228E-04
  40 F= -.34359895E+02 E0= -.34360057E+02  d E =-.356431E-04  mag=     0.0000
       N       E                     dE             d eps       ncg     rms          rms(c)
DAV:   1    -0.343637818387E+02   -0.38873E-02   -0.37372E-02  8304   0.276E+00    0.676E-01
DAV:   2    -0.343773778001E+02   -0.13596E-01   -0.12697E-01  9280   0.368E+00    0.124E+00
DAV:   3    -0.343598853041E+02    0.17492E-01   -0.61629E-02  9104   0.264E+00    0.970E-02
DAV:   4    -0.343601418947E+02   -0.25659E-03   -0.28423E-03 10752   0.685E-01    0.196E-01
DAV:   5    -0.343599090291E+02    0.23287E-03   -0.11188E-03  9824   0.522E-01    0.565E-02
DAV:   6    -0.343598861589E+02    0.22870E-04   -0.12750E-04  8832   0.107E-01    0.807E-03
DAV:   7    -0.343598851417E+02    0.10172E-05   -0.54560E-06  8560   0.249E-02    0.230E-03
DAV:   8    -0.343598849022E+02    0.23946E-06   -0.51872E-07  8624   0.677E-03    0.683E-04
DAV:   9    -0.343598848060E+02    0.96266E-07   -0.56151E-08  7712   0.246E-03    0.480E-04
DAV:  10    -0.343598847580E+02    0.47970E-07   -0.70745E-09  4416   0.930E-04    0.858E-05
DAV:  11    -0.343598847480E+02    0.99917E-08   -0.12572E-09  4240   0.308E-04
  41 F= -.34359885E+02 E0= -.34360042E+02  d E =0.977947E-05  mag=     0.0000
