   5   5   0   0
  0.1363042E+02  0.1071203E-08  0.1071203E-08  0.1071203E-08  0.5000000E-15
  1.000000000000000E-004
  CAR 
 unknown system                          
     24.99966035    -58.96030462  301      8.28490183      1.00000000
    -58.960  0.0000E+00  0.0000E+00  0.0000E+00  0.0000E+00
    -58.680  0.0000E+00  0.0000E+00  0.0000E+00  0.0000E+00
    -58.401  0.0000E+00  0.0000E+00  0.0000E+00  0.0000E+00
    -58.121  0.0000E+00  0.0000E+00  0.0000E+00  0.0000E+00
    -57.841  0.0000E+00  0.0000E+00  0.0000E+00  0.0000E+00
    -57.561  0.0000E+00  0.0000E+00  0.0000E+00  0.0000E+00
    -57.281  0.0000E+00  0.0000E+00  0.0000E+00  0.0000E+00
    -57.001  0.0000E+00  0.0000E+00  0.0000E+00  0.0000E+00
    -56.721  0.0000E+00  0.0000E+00  0.0000E+00  0.0000E+00
    -56.442  0.0000E+00  0.0000E+00  0.0000E+00  0.0000E+00
    -56.162  0.0000E+00  0.0000E+00  0.0000E+00  0.0000E+00
    -55.882  0.0000E+00  0.0000E+00  0.0000E+00  0.0000E+00
    -55.602  0.0000E+00  0.0000E+00  0.0000E+00  0.0000E+00
    -55.322  0.0000E+00  0.0000E+00  0.0000E+00  0.0000E+00
    -55.042  0.0000E+00  0.0000E+00  0.2000E+01  0.2000E+01
    -54.762  0.0000E+00  0.0000E+00  0.6000E+01  0.6000E+01
    -54.482  0.0000E+00  0.0000E+00  0.6000E+01  0.6000E+01
    -54.203  0.0000E+00  0.0000E+00  0.6000E+01  0.6000E+01
    -53.923  0.0000E+00  0.0000E+00  0.6000E+01  0.6000E+01
    -53.643  0.0000E+00  0.0000E+00  0.6000E+01  0.6000E+01
    -53.363  0.0000E+00  0.0000E+00  0.6000E+01  0.6000E+01
    -53.083  0.0000E+00  0.0000E+00  0.6000E+01  0.6000E+01
    -52.803  0.0000E+00  0.0000E+00  0.6000E+01  0.6000E+01
    -52.523  0.0000E+00  0.0000E+00  0.6000E+01  0.6000E+01
    -52.244  0.0000E+00  0.0000E+00  0.6000E+01  0.6000E+01
    -51.964  0.0000E+00  0.0000E+00  0.6000E+01  0.6000E+01
    -51.684  0.0000E+00  0.0000E+00  0.6000E+01  0.6000E+01
    -51.404  0.0000E+00  0.0000E+00  0.6000E+01  0.6000E+01
    -51.124  0.0000E+00  0.0000E+00  0.6000E+01  0.6000E+01
    -50.844  0.0000E+00  0.0000E+00  0.6000E+01  0.6000E+01
    -50.564  0.0000E+00  0.0000E+00  0.6000E+01  0.6000E+01
    -50.284  0.0000E+00  0.0000E+00  0.6000E+01  0.6000E+01
    -50.005  0.0000E+00  0.0000E+00  0.6000E+01  0.6000E+01
    -49.725  0.0000E+00  0.0000E+00  0.6000E+01  0.6000E+01
    -49.445  0.0000E+00  0.0000E+00  0.6000E+01  0.6000E+01
    -49.165  0.0000E+00  0.0000E+00  0.6000E+01  0.6000E+01
    -48.885  0.0000E+00  0.0000E+00  0.6000E+01  0.6000E+01
    -48.605  0.0000E+00  0.0000E+00  0.6000E+01  0.6000E+01
    -48.325  0.0000E+00  0.0000E+00  0.6000E+01  0.6000E+01
    -48.046  0.0000E+00  0.0000E+00  0.6000E+01  0.6000E+01
    -47.766  0.0000E+00  0.0000E+00  0.6000E+01  0.6000E+01
    -47.486  0.0000E+00  0.0000E+00  0.6000E+01  0.6000E+01
    -47.206  0.0000E+00  0.0000E+00  0.6000E+01  0.6000E+01
    -46.926  0.0000E+00  0.0000E+00  0.6000E+01  0.6000E+01
    -46.646  0.0000E+00  0.0000E+00  0.6000E+01  0.6000E+01
    -46.366  0.0000E+00  0.0000E+00  0.6000E+01  0.6000E+01
    -46.086  0.0000E+00  0.0000E+00  0.6000E+01  0.6000E+01
    -45.807  0.0000E+00  0.0000E+00  0.6000E+01  0.6000E+01
    -45.527  0.0000E+00  0.0000E+00  0.6000E+01  0.6000E+01
    -45.247  0.0000E+00  0.0000E+00  0.6000E+01  0.6000E+01
    -44.967  0.0000E+00  0.0000E+00  0.6000E+01  0.6000E+01
    -44.687  0.0000E+00  0.0000E+00  0.6000E+01  0.6000E+01
    -44.407  0.0000E+00  0.0000E+00  0.6000E+01  0.6000E+01
    -44.127  0.0000E+00  0.0000E+00  0.6000E+01  0.6000E+01
    -43.848  0.0000E+00  0.0000E+00  0.6000E+01  0.6000E+01
    -43.568  0.0000E+00  0.0000E+00  0.6000E+01  0.6000E+01
    -43.288  0.0000E+00  0.0000E+00  0.6000E+01  0.6000E+01
    -43.008  0.0000E+00  0.0000E+00  0.6000E+01  0.6000E+01
    -42.728  0.0000E+00  0.0000E+00  0.6000E+01  0.6000E+01
    -42.448  0.0000E+00  0.0000E+00  0.6000E+01  0.6000E+01
    -42.168  0.0000E+00  0.0000E+00  0.6000E+01  0.6000E+01
    -41.888  0.0000E+00  0.0000E+00  0.6000E+01  0.6000E+01
    -41.609  0.0000E+00  0.0000E+00  0.6000E+01  0.6000E+01
    -41.329  0.0000E+00  0.0000E+00  0.6000E+01  0.6000E+01
    -41.049  0.0000E+00  0.0000E+00  0.6000E+01  0.6000E+01
    -40.769  0.0000E+00  0.0000E+00  0.6000E+01  0.6000E+01
    -40.489  0.0000E+00  0.0000E+00  0.6000E+01  0.6000E+01
    -40.209  0.0000E+00  0.0000E+00  0.6000E+01  0.6000E+01
    -39.929  0.0000E+00  0.0000E+00  0.6000E+01  0.6000E+01
    -39.650  0.0000E+00  0.0000E+00  0.6000E+01  0.6000E+01
    -39.370  0.0000E+00  0.0000E+00  0.6000E+01  0.6000E+01
    -39.090  0.0000E+00  0.0000E+00  0.6000E+01  0.6000E+01
    -38.810  0.0000E+00  0.0000E+00  0.6000E+01  0.6000E+01
    -38.530  0.0000E+00  0.0000E+00  0.6000E+01  0.6000E+01
    -38.250  0.0000E+00  0.0000E+00  0.6000E+01  0.6000E+01
    -37.970  0.0000E+00  0.0000E+00  0.6000E+01  0.6000E+01
    -37.690  0.0000E+00  0.0000E+00  0.6000E+01  0.6000E+01
    -37.411  0.0000E+00  0.0000E+00  0.6000E+01  0.6000E+01
    -37.131  0.0000E+00  0.0000E+00  0.6000E+01  0.6000E+01
    -36.851  0.0000E+00  0.0000E+00  0.6000E+01  0.6000E+01
    -36.571  0.0000E+00  0.0000E+00  0.6000E+01  0.6000E+01
    -36.291  0.0000E+00  0.0000E+00  0.6000E+01  0.6000E+01
    -36.011  0.0000E+00  0.0000E+00  0.6000E+01  0.6000E+01
    -35.731  0.0000E+00  0.0000E+00  0.6000E+01  0.6000E+01
    -35.452  0.0000E+00  0.0000E+00  0.6000E+01  0.6000E+01
    -35.172  0.0000E+00  0.0000E+00  0.6000E+01  0.6000E+01
    -34.892  0.0000E+00  0.0000E+00  0.6000E+01  0.6000E+01
    -34.612  0.0000E+00  0.0000E+00  0.6000E+01  0.6000E+01
    -34.332  0.0000E+00  0.0000E+00  0.6000E+01  0.6000E+01
    -34.052  0.0000E+00  0.0000E+00  0.6000E+01  0.6000E+01
    -33.772  0.0000E+00  0.0000E+00  0.6000E+01  0.6000E+01
    -33.492  0.0000E+00  0.0000E+00  0.6000E+01  0.6000E+01
    -33.213  0.0000E+00  0.0000E+00  0.6000E+01  0.6000E+01
    -32.933  0.0000E+00  0.0000E+00  0.6000E+01  0.6000E+01
    -32.653  0.0000E+00  0.0000E+00  0.6000E+01  0.6000E+01
    -32.373  0.0000E+00  0.0000E+00  0.6000E+01  0.6000E+01
    -32.093  0.0000E+00  0.0000E+00  0.6000E+01  0.6000E+01
    -31.813  0.0000E+00  0.0000E+00  0.6000E+01  0.6000E+01
    -31.533  0.0000E+00  0.0000E+00  0.6000E+01  0.6000E+01
    -31.254  0.0000E+00  0.0000E+00  0.6000E+01  0.6000E+01
    -30.974  0.0000E+00  0.0000E+00  0.6000E+01  0.6000E+01
    -30.694  0.0000E+00  0.0000E+00  0.6000E+01  0.6000E+01
    -30.414  0.0000E+00  0.0000E+00  0.6000E+01  0.6000E+01
    -30.134  0.0000E+00  0.0000E+00  0.6000E+01  0.6000E+01
    -29.854  0.0000E+00  0.0000E+00  0.6000E+01  0.6000E+01
    -29.574  0.0000E+00  0.0000E+00  0.6000E+01  0.6000E+01
    -29.294  0.0000E+00  0.0000E+00  0.6000E+01  0.6000E+01
    -29.015  0.0000E+00  0.0000E+00  0.6000E+01  0.6000E+01
    -28.735  0.0000E+00  0.0000E+00  0.6000E+01  0.6000E+01
    -28.455  0.0000E+00  0.0000E+00  0.6000E+01  0.6000E+01
    -28.175  0.0000E+00  0.0000E+00  0.6000E+01  0.6000E+01
    -27.895  0.0000E+00  0.0000E+00  0.6000E+01  0.6000E+01
    -27.615  0.0000E+00  0.0000E+00  0.6000E+01  0.6000E+01
    -27.335  0.0000E+00  0.0000E+00  0.6000E+01  0.6000E+01
    -27.056  0.0000E+00  0.0000E+00  0.6000E+01  0.6000E+01
    -26.776  0.0000E+00  0.0000E+00  0.6000E+01  0.6000E+01
    -26.496  0.0000E+00  0.0000E+00  0.6000E+01  0.6000E+01
    -26.216  0.0000E+00  0.0000E+00  0.6000E+01  0.6000E+01
    -25.936  0.0000E+00  0.0000E+00  0.6000E+01  0.6000E+01
    -25.656  0.0000E+00  0.0000E+00  0.6000E+01  0.6000E+01
    -25.376  0.0000E+00  0.0000E+00  0.6000E+01  0.6000E+01
    -25.096  0.0000E+00  0.0000E+00  0.6000E+01  0.6000E+01
    -24.817  0.0000E+00  0.0000E+00  0.6000E+01  0.6000E+01
    -24.537  0.0000E+00  0.0000E+00  0.6000E+01  0.6000E+01
    -24.257  0.0000E+00  0.0000E+00  0.6000E+01  0.6000E+01
    -23.977  0.0000E+00  0.0000E+00  0.6000E+01  0.6000E+01
    -23.697  0.0000E+00  0.0000E+00  0.6000E+01  0.6000E+01
    -23.417  0.0000E+00  0.0000E+00  0.6000E+01  0.6000E+01
    -23.137  0.0000E+00  0.0000E+00  0.6000E+01  0.6000E+01
    -22.858  0.0000E+00  0.0000E+00  0.6000E+01  0.6000E+01
    -22.578  0.0000E+00  0.0000E+00  0.6000E+01  0.6000E+01
    -22.298  0.0000E+00  0.0000E+00  0.6000E+01  0.6000E+01
    -22.018  0.0000E+00  0.0000E+00  0.6000E+01  0.6000E+01
    -21.738  0.0000E+00  0.0000E+00  0.6000E+01  0.6000E+01
    -21.458  0.0000E+00  0.0000E+00  0.6000E+01  0.6000E+01
    -21.178  0.0000E+00  0.0000E+00  0.6000E+01  0.6000E+01
    -20.898  0.0000E+00  0.0000E+00  0.6000E+01  0.6000E+01
    -20.619  0.0000E+00  0.0000E+00  0.6000E+01  0.6000E+01
    -20.339  0.0000E+00  0.0000E+00  0.6000E+01  0.6000E+01
    -20.059  0.0000E+00  0.0000E+00  0.6000E+01  0.6000E+01
    -19.779  0.0000E+00  0.0000E+00  0.6000E+01  0.6000E+01
    -19.499  0.0000E+00  0.0000E+00  0.6000E+01  0.6000E+01
    -19.219  0.0000E+00  0.0000E+00  0.6000E+01  0.6000E+01
    -18.939  0.0000E+00  0.0000E+00  0.6000E+01  0.6000E+01
    -18.660  0.0000E+00  0.0000E+00  0.6000E+01  0.6000E+01
    -18.380  0.0000E+00  0.0000E+00  0.6000E+01  0.6000E+01
    -18.100  0.0000E+00  0.0000E+00  0.6000E+01  0.6000E+01
    -17.820  0.0000E+00  0.0000E+00  0.6000E+01  0.6000E+01
    -17.540  0.0000E+00  0.0000E+00  0.6000E+01  0.6000E+01
    -17.260  0.0000E+00  0.0000E+00  0.6000E+01  0.6000E+01
    -16.980  0.0000E+00  0.0000E+00  0.6000E+01  0.6000E+01
    -16.700  0.0000E+00  0.0000E+00  0.6000E+01  0.6000E+01
    -16.421  0.0000E+00  0.0000E+00  0.6000E+01  0.6000E+01
    -16.141  0.0000E+00  0.0000E+00  0.6000E+01  0.6000E+01
    -15.861  0.0000E+00  0.0000E+00  0.6000E+01  0.6000E+01
    -15.581  0.0000E+00  0.0000E+00  0.6000E+01  0.6000E+01
    -15.301  0.0000E+00  0.0000E+00  0.6000E+01  0.6000E+01
    -15.021  0.0000E+00  0.0000E+00  0.6000E+01  0.6000E+01
    -14.741  0.0000E+00  0.0000E+00  0.6000E+01  0.6000E+01
    -14.462  0.0000E+00  0.0000E+00  0.6000E+01  0.6000E+01
    -14.182  0.0000E+00  0.0000E+00  0.6000E+01  0.6000E+01
    -13.902  0.0000E+00  0.0000E+00  0.6000E+01  0.6000E+01
    -13.622  0.0000E+00  0.0000E+00  0.6000E+01  0.6000E+01
    -13.342  0.0000E+00  0.0000E+00  0.6000E+01  0.6000E+01
    -13.062  0.0000E+00  0.0000E+00  0.6000E+01  0.6000E+01
    -12.782  0.0000E+00  0.0000E+00  0.6000E+01  0.6000E+01
    -12.502  0.0000E+00  0.0000E+00  0.6000E+01  0.6000E+01
    -12.223  0.0000E+00  0.0000E+00  0.6000E+01  0.6000E+01
    -11.943  0.0000E+00  0.0000E+00  0.6000E+01  0.6000E+01
    -11.663  0.0000E+00  0.0000E+00  0.6000E+01  0.6000E+01
    -11.383  0.0000E+00  0.0000E+00  0.6000E+01  0.6000E+01
    -11.103  0.0000E+00  0.0000E+00  0.6000E+01  0.6000E+01
    -10.823  0.0000E+00  0.0000E+00  0.6000E+01  0.6000E+01
    -10.543  0.0000E+00  0.0000E+00  0.6000E+01  0.6000E+01
    -10.264  0.0000E+00  0.0000E+00  0.6000E+01  0.6000E+01
     -9.984  0.0000E+00  0.0000E+00  0.6000E+01  0.6000E+01
     -9.704  0.0000E+00  0.0000E+00  0.6000E+01  0.6000E+01
     -9.424  0.0000E+00  0.0000E+00  0.6000E+01  0.6000E+01
     -9.144  0.0000E+00  0.0000E+00  0.6000E+01  0.6000E+01
     -8.864  0.0000E+00  0.0000E+00  0.6000E+01  0.6000E+01
     -8.584  0.0000E+00  0.0000E+00  0.6000E+01  0.6000E+01
     -8.304  0.0000E+00  0.0000E+00  0.6000E+01  0.6000E+01
     -8.025  0.0000E+00  0.0000E+00  0.6000E+01  0.6000E+01
     -7.745  0.0000E+00  0.0000E+00  0.6000E+01  0.6000E+01
     -7.465  0.0000E+00  0.0000E+00  0.6000E+01  0.6000E+01
     -7.185  0.0000E+00  0.0000E+00  0.6000E+01  0.6000E+01
     -6.905  0.0000E+00  0.0000E+00  0.6000E+01  0.6000E+01
     -6.625  0.0000E+00  0.0000E+00  0.6000E+01  0.6000E+01
     -6.345  0.0000E+00  0.0000E+00  0.6000E+01  0.6000E+01
     -6.066  0.0000E+00  0.0000E+00  0.6000E+01  0.6000E+01
     -5.786  0.0000E+00  0.0000E+00  0.6000E+01  0.6000E+01
     -5.506  0.0000E+00  0.0000E+00  0.6000E+01  0.6000E+01
     -5.226  0.0000E+00  0.0000E+00  0.6000E+01  0.6000E+01
     -4.946  0.0000E+00  0.0000E+00  0.6000E+01  0.6000E+01
     -4.666  0.0000E+00  0.0000E+00  0.6000E+01  0.6000E+01
     -4.386  0.0000E+00  0.0000E+00  0.6000E+01  0.6000E+01
     -4.106  0.0000E+00  0.0000E+00  0.6000E+01  0.6000E+01
     -3.827  0.0000E+00  0.0000E+00  0.6000E+01  0.6000E+01
     -3.547  0.0000E+00  0.0000E+00  0.6000E+01  0.6000E+01
     -3.267  0.0000E+00  0.0000E+00  0.6000E+01  0.6000E+01
     -2.987  0.0000E+00  0.0000E+00  0.6000E+01  0.6000E+01
     -2.707  0.6888E-01  0.6888E-01  0.6008E+01  0.6008E+01
     -2.427  0.1561E+00  0.1561E+00  0.6039E+01  0.6039E+01
     -2.147  0.1168E+00  0.1168E+00  0.6089E+01  0.6089E+01
     -1.868  0.1451E+00  0.1451E+00  0.6124E+01  0.6124E+01
     -1.588  0.2381E+00  0.2381E+00  0.6177E+01  0.6177E+01
     -1.308  0.3347E+00  0.3347E+00  0.6257E+01  0.6257E+01
     -1.028  0.2704E+00  0.2704E+00  0.6341E+01  0.6341E+01
     -0.748  0.2857E+00  0.2857E+00  0.6419E+01  0.6419E+01
     -0.468  0.2862E+00  0.2862E+00  0.6499E+01  0.6499E+01
     -0.188  0.3112E+00  0.3112E+00  0.6581E+01  0.6581E+01
      0.092  0.3756E+00  0.3756E+00  0.6676E+01  0.6676E+01
      0.371  0.4366E+00  0.4366E+00  0.6793E+01  0.6793E+01
      0.651  0.4462E+00  0.4462E+00  0.6917E+01  0.6917E+01
      0.931  0.4251E+00  0.4251E+00  0.7038E+01  0.7038E+01
      1.211  0.4455E+00  0.4455E+00  0.7160E+01  0.7160E+01
      1.491  0.4679E+00  0.4679E+00  0.7288E+01  0.7288E+01
      1.771  0.5142E+00  0.5142E+00  0.7424E+01  0.7424E+01
      2.051  0.7583E+00  0.7583E+00  0.7579E+01  0.7579E+01
      2.330  0.7245E+00  0.7245E+00  0.7788E+01  0.7788E+01
      2.610  0.6967E+00  0.6967E+00  0.7986E+01  0.7986E+01
      2.890  0.1049E+01  0.1049E+01  0.8205E+01  0.8205E+01
      3.170  0.7676E+00  0.7676E+00  0.8459E+01  0.8459E+01
      3.450  0.6093E+00  0.6093E+00  0.8640E+01  0.8640E+01
      3.730  0.6689E+00  0.6689E+00  0.8818E+01  0.8818E+01
      4.010  0.8841E+00  0.8841E+00  0.9027E+01  0.9027E+01
      4.290  0.1265E+01  0.1265E+01  0.9341E+01  0.9341E+01
      4.569  0.1254E+01  0.1254E+01  0.9702E+01  0.9702E+01
      4.849  0.1425E+01  0.1425E+01  0.1004E+02  0.1004E+02
      5.129  0.1470E+01  0.1470E+01  0.1047E+02  0.1047E+02
      5.409  0.1815E+01  0.1815E+01  0.1111E+02  0.1111E+02
      5.689  0.1794E+01  0.1794E+01  0.1226E+02  0.1226E+02
      5.969  0.1391E+01  0.1391E+01  0.1270E+02  0.1270E+02
      6.249  0.3567E+01  0.3567E+01  0.1379E+02  0.1379E+02
      6.528  0.6757E+01  0.6757E+01  0.1495E+02  0.1495E+02
      6.808  0.4742E+01  0.4742E+01  0.1627E+02  0.1627E+02
      7.088  0.2613E+01  0.2613E+01  0.1701E+02  0.1701E+02
      7.368  0.5454E+01  0.5454E+01  0.1805E+02  0.1805E+02
      7.648  0.3867E+01  0.3867E+01  0.1916E+02  0.1916E+02
      7.928  0.2246E+01  0.2246E+01  0.1983E+02  0.1983E+02
      8.208  0.1152E+01  0.1152E+01  0.2041E+02  0.2041E+02
      8.488  0.1593E+01  0.1593E+01  0.2089E+02  0.2089E+02
      8.767  0.1237E+01  0.1237E+01  0.2125E+02  0.2125E+02
      9.047  0.6112E+00  0.6112E+00  0.2153E+02  0.2153E+02
      9.327  0.5768E+00  0.5768E+00  0.2169E+02  0.2169E+02
      9.607  0.6569E+00  0.6569E+00  0.2185E+02  0.2185E+02
      9.887  0.1275E+01  0.1275E+01  0.2212E+02  0.2212E+02
     10.167  0.1179E+01  0.1179E+01  0.2246E+02  0.2246E+02
     10.447  0.8720E+00  0.8720E+00  0.2281E+02  0.2281E+02
     10.726  0.6136E+00  0.6136E+00  0.2300E+02  0.2300E+02
     11.006  0.6806E+00  0.6806E+00  0.2318E+02  0.2318E+02
     11.286  0.7347E+00  0.7347E+00  0.2338E+02  0.2338E+02
     11.566  0.7233E+00  0.7233E+00  0.2359E+02  0.2359E+02
     11.846  0.1001E+01  0.1001E+01  0.2383E+02  0.2383E+02
     12.126  0.9991E+00  0.9991E+00  0.2411E+02  0.2411E+02
     12.406  0.1161E+01  0.1161E+01  0.2440E+02  0.2440E+02
     12.686  0.1037E+01  0.1037E+01  0.2471E+02  0.2471E+02
     12.965  0.9615E+00  0.9615E+00  0.2499E+02  0.2499E+02
     13.245  0.9995E+00  0.9995E+00  0.2526E+02  0.2526E+02
     13.525  0.9371E+00  0.9371E+00  0.2554E+02  0.2554E+02
     13.805  0.8502E+00  0.8502E+00  0.2579E+02  0.2579E+02
     14.085  0.7678E+00  0.7678E+00  0.2601E+02  0.2601E+02
     14.365  0.7231E+00  0.7231E+00  0.2622E+02  0.2622E+02
     14.645  0.6681E+00  0.6681E+00  0.2641E+02  0.2641E+02
     14.924  0.6778E+00  0.6778E+00  0.2660E+02  0.2660E+02
     15.204  0.6171E+00  0.6171E+00  0.2678E+02  0.2678E+02
     15.484  0.5710E+00  0.5710E+00  0.2695E+02  0.2695E+02
     15.764  0.5038E+00  0.5038E+00  0.2710E+02  0.2710E+02
     16.044  0.4110E+00  0.4110E+00  0.2723E+02  0.2723E+02
     16.324  0.3450E+00  0.3450E+00  0.2733E+02  0.2733E+02
     16.604  0.3065E+00  0.3065E+00  0.2742E+02  0.2742E+02
     16.884  0.2746E+00  0.2746E+00  0.2750E+02  0.2750E+02
     17.163  0.2449E+00  0.2449E+00  0.2758E+02  0.2758E+02
     17.443  0.2189E+00  0.2189E+00  0.2764E+02  0.2764E+02
     17.723  0.1956E+00  0.1956E+00  0.2770E+02  0.2770E+02
     18.003  0.1707E+00  0.1707E+00  0.2775E+02  0.2775E+02
     18.283  0.1500E+00  0.1500E+00  0.2779E+02  0.2779E+02
     18.563  0.1341E+00  0.1341E+00  0.2783E+02  0.2783E+02
     18.843  0.1188E+00  0.1188E+00  0.2787E+02  0.2787E+02
     19.122  0.1035E+00  0.1035E+00  0.2790E+02  0.2790E+02
     19.402  0.8826E-01  0.8826E-01  0.2793E+02  0.2793E+02
     19.682  0.7299E-01  0.7299E-01  0.2795E+02  0.2795E+02
     19.962  0.5787E-01  0.5787E-01  0.2797E+02  0.2797E+02
     20.242  0.4306E-01  0.4306E-01  0.2798E+02  0.2798E+02
     20.522  0.2856E-01  0.2856E-01  0.2799E+02  0.2799E+02
     20.802  0.1438E-01  0.1438E-01  0.2800E+02  0.2800E+02
     21.082  0.2247E-02  0.2247E-02  0.2800E+02  0.2800E+02
     21.361  0.0000E+00  0.0000E+00  0.2800E+02  0.2800E+02
     21.641  0.0000E+00  0.0000E+00  0.2800E+02  0.2800E+02
     21.921  0.0000E+00  0.0000E+00  0.2800E+02  0.2800E+02
     22.201  0.0000E+00  0.0000E+00  0.2800E+02  0.2800E+02
     22.481  0.0000E+00  0.0000E+00  0.2800E+02  0.2800E+02
     22.761  0.0000E+00  0.0000E+00  0.2800E+02  0.2800E+02
     23.041  0.0000E+00  0.0000E+00  0.2800E+02  0.2800E+02
     23.320  0.0000E+00  0.0000E+00  0.2800E+02  0.2800E+02
     23.600  0.0000E+00  0.0000E+00  0.2800E+02  0.2800E+02
     23.880  0.0000E+00  0.0000E+00  0.2800E+02  0.2800E+02
     24.160  0.0000E+00  0.0000E+00  0.2800E+02  0.2800E+02
     24.440  0.0000E+00  0.0000E+00  0.2800E+02  0.2800E+02
     24.720  0.0000E+00  0.0000E+00  0.2800E+02  0.2800E+02
     25.000  0.0000E+00  0.0000E+00  0.2800E+02  0.2800E+02
