       N       E                     dE             d eps       ncg     rms          rms(c)
DAV:   1     0.360587808363E+03    0.36059E+03   -0.23442E+04  4464   0.150E+03
DAV:   2    -0.105981540338E+02   -0.37119E+03   -0.35909E+03  3716   0.458E+02
DAV:   3    -0.279303604421E+02   -0.17332E+02   -0.16418E+02  4300   0.109E+02
DAV:   4    -0.284197046827E+02   -0.48934E+00   -0.48698E+00  4176   0.175E+01
DAV:   5    -0.284334032736E+02   -0.13699E-01   -0.13694E-01  4344   0.321E+00    0.305E+01
DAV:   6    -0.716101859264E+02   -0.43177E+02   -0.38966E+02  4728   0.236E+02    0.448E+01
DAV:   7    -0.260587463439E+02    0.45551E+02   -0.14604E+02  4480   0.116E+02    0.201E+01
DAV:   8    -0.212661795429E+02    0.47926E+01   -0.45121E+01  4696   0.649E+01    0.734E+00
DAV:   9    -0.211837881844E+02    0.82391E-01   -0.19479E+00  4088   0.107E+01    0.396E+00
DAV:  10    -0.211918227120E+02   -0.80345E-02   -0.93976E-01  4520   0.876E+00    0.183E+00
DAV:  11    -0.212225471068E+02   -0.30724E-01   -0.40721E-02  4212   0.172E+00    0.180E+00
DAV:  12    -0.212133475024E+02    0.91996E-02   -0.27743E-02  4140   0.140E+00    0.109E+00
DAV:  13    -0.212108213516E+02    0.25262E-02   -0.98317E-02  4780   0.250E+00    0.927E-01
DAV:  14    -0.212118450865E+02   -0.10237E-02   -0.37305E-03  4084   0.495E-01    0.111E+00
DAV:  15    -0.212086415001E+02    0.32036E-02   -0.66613E-03  5144   0.632E-01    0.674E-01
DAV:  16    -0.212080866064E+02    0.55489E-03   -0.71442E-03  4816   0.749E-01    0.204E-01
DAV:  17    -0.212080136535E+02    0.72953E-04   -0.17553E-03  4540   0.384E-01    0.674E-02
DAV:  18    -0.212080128986E+02    0.75484E-06   -0.12980E-04  4348   0.138E-01    0.260E-02
DAV:  19    -0.212080087336E+02    0.41650E-05   -0.27691E-05  5180   0.487E-02    0.510E-03
DAV:  20    -0.212080088201E+02   -0.86517E-07   -0.50507E-06  4248   0.213E-02    0.562E-03
DAV:  21    -0.212080087688E+02    0.51330E-07   -0.30980E-07  4348   0.638E-03    0.701E-03
DAV:  22    -0.212080083069E+02    0.46193E-06   -0.97848E-07  4704   0.916E-03    0.120E-03
DAV:  23    -0.212080082729E+02    0.34008E-07   -0.74058E-08  3912   0.211E-03    0.399E-04
DAV:  24    -0.212080082711E+02    0.17644E-08   -0.55097E-09  2096   0.622E-04
   1 F= -.21208008E+02 E0= -.21207617E+02  d E =-.212080E+02  mag=     0.3344
       N       E                     dE             d eps       ncg     rms          rms(c)
DAV:   1    -0.191635391187E+03   -0.17043E+03   -0.29139E+03  3672   0.808E+02    0.916E+01
DAV:   2    -0.525319621604E+02    0.13910E+03   -0.78051E+02  4176   0.250E+02    0.449E+01
DAV:   3    -0.663552059968E+02   -0.13823E+02   -0.41858E+02  4516   0.190E+02    0.453E+01
DAV:   4    -0.300916042094E+02    0.36264E+02   -0.89388E+01  4432   0.865E+01    0.210E+01
DAV:   5    -0.227775629050E+02    0.73140E+01   -0.26530E+01  4716   0.461E+01    0.359E+00
DAV:   6    -0.223803342689E+02    0.39723E+00   -0.29412E+00  4176   0.172E+01    0.400E+00
DAV:   7    -0.224395271115E+02   -0.59193E-01   -0.27181E+00  5244   0.950E+00    0.550E+00
DAV:   8    -0.222249077470E+02    0.21462E+00   -0.72566E-01  4576   0.574E+00    0.964E-01
DAV:   9    -0.222181299642E+02    0.67778E-02   -0.50697E-02  5052   0.115E+00    0.321E-01
DAV:  10    -0.222195690095E+02   -0.14390E-02   -0.18938E-02  4388   0.864E-01    0.685E-01
DAV:  11    -0.222172906779E+02    0.22783E-02   -0.56089E-03  4360   0.634E-01    0.367E-01
DAV:  12    -0.222176062129E+02   -0.31553E-03   -0.59644E-03  4692   0.451E-01    0.313E-01
DAV:  13    -0.222174702283E+02    0.13598E-03   -0.75081E-04  4232   0.232E-01    0.214E-01
DAV:  14    -0.222169738771E+02    0.49635E-03   -0.13074E-03  4688   0.290E-01    0.676E-02
DAV:  15    -0.222169887107E+02   -0.14834E-04   -0.65527E-05  4260   0.657E-02    0.496E-02
DAV:  16    -0.222169594788E+02    0.29232E-04   -0.10584E-04  5188   0.600E-02    0.180E-02
DAV:  17    -0.222169617448E+02   -0.22660E-05   -0.15881E-05  4432   0.289E-02    0.236E-02
DAV:  18    -0.222169573033E+02    0.44416E-05   -0.11166E-05  4904   0.222E-02    0.702E-03
DAV:  19    -0.222169572524E+02    0.50904E-07   -0.56197E-07  3996   0.545E-03    0.664E-03
DAV:  20    -0.222169568884E+02    0.36398E-06   -0.83989E-07  4708   0.621E-03    0.192E-03
DAV:  21    -0.222169569005E+02   -0.12085E-07   -0.12709E-07  4336   0.259E-03    0.615E-04
DAV:  22    -0.222169569051E+02   -0.46266E-08   -0.14649E-08  2052   0.930E-04
   2 F= -.22216957E+02 E0= -.22215779E+02  d E =-.100895E+01  mag=     0.0000
       N       E                     dE             d eps       ncg     rms          rms(c)
DAV:   1    -0.964913307150E+02   -0.74274E+02   -0.74631E+02  4200   0.275E+02    0.914E+01
DAV:   2    -0.258194318395E+03   -0.16170E+03   -0.31593E+03  5712   0.547E+02    0.703E+01
DAV:   3    -0.639722759742E+02    0.19422E+03   -0.55286E+02  4832   0.214E+02    0.372E+01
DAV:   4    -0.236297602199E+02    0.40343E+02   -0.18331E+02  4368   0.110E+02    0.100E+01
DAV:   5    -0.232771079239E+02    0.35265E+00   -0.20241E+01  4264   0.269E+01    0.569E+00
DAV:   6    -0.234774900019E+02   -0.20038E+00   -0.46636E+00  4240   0.240E+01    0.714E+00
DAV:   7    -0.231840775498E+02    0.29341E+00   -0.58453E-01  3928   0.836E+00    0.373E+00
DAV:   8    -0.233604254979E+02   -0.17635E+00   -0.44759E+00  4640   0.151E+01    0.635E+00
DAV:   9    -0.233073447382E+02    0.53081E-01   -0.71290E-02  3928   0.175E+00    0.585E+00
DAV:  10    -0.231715066195E+02    0.13584E+00   -0.99400E-02  4392   0.268E+00    0.401E+00
DAV:  11    -0.230470705119E+02    0.12444E+00   -0.42058E-01  4772   0.419E+00    0.697E-01
DAV:  12    -0.230471002006E+02   -0.29689E-04   -0.78499E-03  3860   0.578E-01    0.534E-01
DAV:  13    -0.230448607976E+02    0.22394E-02   -0.74551E-03  5036   0.711E-01    0.356E-01
DAV:  14    -0.230455031472E+02   -0.64235E-03   -0.72588E-04  3932   0.270E-01    0.482E-01
DAV:  15    -0.230441610404E+02    0.13421E-02   -0.66119E-03  4564   0.679E-01    0.127E-01
DAV:  16    -0.230440192375E+02    0.14180E-03   -0.46541E-04  4616   0.165E-01    0.731E-02
DAV:  17    -0.230440038679E+02    0.15370E-04   -0.25125E-04  4204   0.149E-01    0.808E-02
DAV:  18    -0.230439796106E+02    0.24257E-04   -0.26388E-05  4560   0.364E-02    0.605E-02
DAV:  19    -0.230439595545E+02    0.20056E-04   -0.17110E-05  5148   0.279E-02    0.369E-02
DAV:  20    -0.230439499814E+02    0.95731E-05   -0.10370E-05  5252   0.196E-02    0.182E-02
DAV:  21    -0.230439474641E+02    0.25173E-05   -0.26616E-06  5160   0.918E-03    0.108E-02
DAV:  22    -0.230439461631E+02    0.13009E-05   -0.26639E-06  5596   0.986E-03    0.167E-03
DAV:  23    -0.230439460920E+02    0.71147E-07   -0.37419E-07  4896   0.359E-03    0.194E-03
DAV:  24    -0.230439460830E+02    0.90495E-08   -0.90056E-08  3768   0.278E-03
   3 F= -.23043946E+02 E0= -.23042146E+02  d E =-.183594E+01  mag=     0.0000
       N       E                     dE             d eps       ncg     rms          rms(c)
DAV:   1    -0.230594155585E+02   -0.15469E-01   -0.12224E-01  3964   0.398E+00    0.156E+00
DAV:   2    -0.232778050988E+02   -0.21839E+00   -0.14561E+00  4596   0.104E+01    0.489E+00
DAV:   3    -0.230443095574E+02    0.23350E+00   -0.91947E-01  4596   0.833E+00    0.253E-01
DAV:   4    -0.230441827249E+02    0.12683E-03   -0.98599E-03  3904   0.617E-01    0.127E-01
DAV:   5    -0.230440480177E+02    0.13471E-03   -0.44438E-04  4748   0.198E-01    0.232E-02
DAV:   6    -0.230440440677E+02    0.39500E-05   -0.64923E-05  3944   0.819E-02    0.350E-02
DAV:   7    -0.230440363316E+02    0.77361E-05   -0.19225E-05  4696   0.346E-02    0.718E-03
DAV:   8    -0.230440364670E+02   -0.13541E-06   -0.70179E-07  3992   0.613E-03    0.107E-02
DAV:   9    -0.230440364480E+02    0.19028E-07   -0.19747E-06  4336   0.899E-03    0.882E-03
DAV:  10    -0.230440359644E+02    0.48361E-06   -0.25352E-06  4568   0.117E-02    0.226E-03
DAV:  11    -0.230440359376E+02    0.26754E-07   -0.10881E-07  3968   0.308E-03    0.174E-03
DAV:  12    -0.230440358912E+02    0.46396E-07   -0.39196E-08  3184   0.168E-03    0.838E-04
DAV:  13    -0.230440358830E+02    0.82409E-08   -0.47261E-09  1996   0.600E-04
   4 F= -.23044036E+02 E0= -.23042231E+02  d E =-.183603E+01  mag=     0.0000
       N       E                     dE             d eps       ncg     rms          rms(c)
DAV:   1    -0.241501457840E+02   -0.11061E+01   -0.15165E+01  4316   0.499E+01    0.108E+01
DAV:   2    -0.286833329906E+02   -0.45332E+01   -0.43757E+01  4528   0.635E+01    0.189E+01
DAV:   3    -0.232804277287E+02    0.54029E+01   -0.16898E+01  4400   0.482E+01    0.209E+00
DAV:   4    -0.233483416830E+02   -0.67914E-01   -0.17153E+00  4908   0.837E+00    0.350E+00
DAV:   5    -0.232482233232E+02    0.10012E+00   -0.53715E-01  4640   0.589E+00    0.293E-01
DAV:   6    -0.232494713842E+02   -0.12481E-02   -0.20726E-02  3992   0.117E+00    0.660E-01
DAV:   7    -0.232452307661E+02    0.42406E-02   -0.19669E-02  4624   0.114E+00    0.759E-02
DAV:   8    -0.232452880920E+02   -0.57326E-04   -0.18984E-03  4296   0.298E-01    0.836E-02
DAV:   9    -0.232451985640E+02    0.89528E-04   -0.18184E-04  4508   0.969E-02    0.321E-02
DAV:  10    -0.232451750109E+02    0.23553E-04   -0.44738E-05  4584   0.451E-02    0.124E-02
DAV:  11    -0.232451738634E+02    0.11474E-05   -0.87752E-06  4564   0.163E-02    0.442E-03
DAV:  12    -0.232451739482E+02   -0.84743E-07   -0.28573E-07  3900   0.373E-03    0.475E-03
DAV:  13    -0.232451741307E+02   -0.18250E-06   -0.25504E-07  4168   0.422E-03    0.704E-03
DAV:  14    -0.232451738102E+02    0.32049E-06   -0.16996E-07  3956   0.317E-03    0.525E-03
DAV:  15    -0.232451735123E+02    0.29793E-06   -0.63534E-07  4352   0.538E-03    0.149E-03
DAV:  16    -0.232451735037E+02    0.85520E-08   -0.17219E-07  4756   0.323E-03    0.120E-03
DAV:  17    -0.232451734957E+02    0.80545E-08   -0.10758E-08  2284   0.923E-04
   5 F= -.23245173E+02 E0= -.23244032E+02  d E =-.201138E+00  mag=     0.0002
       N       E                     dE             d eps       ncg     rms          rms(c)
DAV:   1    -0.245403532285E+02   -0.12952E+01   -0.21177E+01  4352   0.602E+01    0.124E+01
DAV:   2    -0.296225135555E+02   -0.50822E+01   -0.51422E+01  4544   0.736E+01    0.199E+01
DAV:   3    -0.233448209253E+02    0.62777E+01   -0.20825E+01  4388   0.543E+01    0.245E+00
DAV:   4    -0.234705679882E+02   -0.12575E+00   -0.25268E+00  5008   0.110E+01    0.432E+00
DAV:   5    -0.233252957484E+02    0.14527E+00   -0.12851E+00  4640   0.991E+00    0.129E+00
DAV:   6    -0.233105221810E+02    0.14774E-01   -0.39288E-02  4396   0.148E+00    0.724E-01
DAV:   7    -0.233057855003E+02    0.47367E-02   -0.20414E-02  5180   0.115E+00    0.994E-02
DAV:   8    -0.233058651628E+02   -0.79663E-04   -0.14571E-03  3980   0.272E-01    0.413E-02
DAV:   9    -0.233058351620E+02    0.30001E-04   -0.95597E-05  3948   0.853E-02    0.420E-02
DAV:  10    -0.233058100619E+02    0.25100E-04   -0.89772E-05  5868   0.611E-02    0.389E-03
DAV:  11    -0.233058102604E+02   -0.19846E-06   -0.71111E-06  4432   0.128E-02    0.452E-03
DAV:  12    -0.233058103090E+02   -0.48662E-07   -0.33737E-07  4004   0.307E-03    0.503E-03
DAV:  13    -0.233058103939E+02   -0.84858E-07   -0.55804E-07  4240   0.517E-03    0.494E-03
DAV:  14    -0.233058104384E+02   -0.44569E-07   -0.35558E-08  3192   0.180E-03    0.560E-03
DAV:  15    -0.233058102630E+02    0.17545E-06   -0.23562E-07  4360   0.355E-03    0.487E-03
DAV:  16    -0.233058099620E+02    0.30095E-06   -0.90805E-07  4356   0.744E-03    0.243E-03
DAV:  17    -0.233058100733E+02   -0.11125E-06   -0.84202E-08  4360   0.280E-03    0.111E-03
DAV:  18    -0.233058100709E+02    0.24320E-08   -0.87888E-09  1840   0.109E-03
   6 F= -.23305810E+02 E0= -.23305176E+02  d E =-.261774E+00  mag=     0.0004
       N       E                     dE             d eps       ncg     rms          rms(c)
DAV:   1    -0.233774412997E+02   -0.71631E-01   -0.11965E+00  4044   0.145E+01    0.282E+00
DAV:   2    -0.237932934213E+02   -0.41585E+00   -0.43900E+00  4556   0.177E+01    0.717E+00
DAV:   3    -0.233160939274E+02    0.47720E+00   -0.22792E+00  4540   0.133E+01    0.628E-01
DAV:   4    -0.233128395398E+02    0.32544E-02   -0.32491E-02  3824   0.131E+00    0.312E-01
DAV:   5    -0.233120042213E+02    0.83532E-03   -0.41374E-03  4572   0.547E-01    0.376E-02
DAV:   6    -0.233120099969E+02   -0.57756E-05   -0.14859E-04  3852   0.927E-02    0.175E-02
DAV:   7    -0.233120105493E+02   -0.55240E-06   -0.13458E-05  4552   0.390E-02    0.657E-03
DAV:   8    -0.233120110161E+02   -0.46678E-06   -0.16665E-06  4332   0.101E-02    0.846E-03
DAV:   9    -0.233120104595E+02    0.55659E-06   -0.80318E-07  4316   0.809E-03    0.704E-03
DAV:  10    -0.233120098611E+02    0.59839E-06   -0.38682E-06  4384   0.158E-02    0.256E-03
DAV:  11    -0.233120103626E+02   -0.50152E-06   -0.38824E-07  4836   0.692E-03    0.249E-03
DAV:  12    -0.233120102928E+02    0.69764E-07   -0.36299E-07  4056   0.523E-03    0.137E-03
DAV:  13    -0.233120103292E+02   -0.36327E-07   -0.10475E-07  4244   0.265E-03    0.654E-04
DAV:  14    -0.233120103521E+02   -0.22912E-07   -0.18384E-08  2064   0.156E-03    0.736E-04
DAV:  15    -0.233120103454E+02    0.66630E-08   -0.74053E-09  1792   0.724E-04
   7 F= -.23312010E+02 E0= -.23311257E+02  d E =-.267974E+00  mag=    -0.0001
       N       E                     dE             d eps       ncg     rms          rms(c)
DAV:   1    -0.235299565340E+02   -0.21795E+00   -0.23977E+01  4200   0.172E+02    0.975E+00
DAV:   2    -0.296975900937E+02   -0.61676E+01   -0.70978E+01  4700   0.676E+01    0.285E+01
DAV:   3    -0.234249978081E+02    0.62726E+01   -0.41840E+01  4724   0.474E+01    0.367E+00
DAV:   4    -0.233833366454E+02    0.41661E-01   -0.80012E-01  4032   0.658E+00    0.164E+00
DAV:   5    -0.233587698128E+02    0.24567E-01   -0.64856E-02  4976   0.185E+00    0.613E-01
DAV:   6    -0.233567303427E+02    0.20395E-02   -0.22913E-02  4956   0.120E+00    0.215E-01
DAV:   7    -0.233562363552E+02    0.49399E-03   -0.45855E-03  4540   0.622E-01    0.784E-02
DAV:   8    -0.233561704104E+02    0.65945E-04   -0.36443E-04  4432   0.155E-01    0.161E-02
DAV:   9    -0.233561719727E+02   -0.15623E-05   -0.26514E-05  4264   0.585E-02    0.620E-03
DAV:  10    -0.233561713726E+02    0.60012E-06   -0.40740E-06  3956   0.169E-02    0.130E-03
DAV:  11    -0.233561714138E+02   -0.41202E-07   -0.37728E-07  4308   0.616E-03    0.119E-03
DAV:  12    -0.233561714339E+02   -0.20144E-07   -0.31220E-08  3160   0.183E-03    0.118E-03
DAV:  13    -0.233561714291E+02    0.47949E-08   -0.82403E-09  2052   0.102E-03
   8 F= -.23356171E+02 E0= -.23355534E+02  d E =-.441611E-01  mag=    -0.0002
       N       E                     dE             d eps       ncg     rms          rms(c)
DAV:   1    -0.234401074227E+02   -0.83936E-01   -0.10828E+01  4072   0.117E+02    0.684E+00
DAV:   2    -0.265188409378E+02   -0.30787E+01   -0.35128E+01  4700   0.469E+01    0.203E+01
DAV:   3    -0.233954321284E+02    0.31234E+01   -0.22178E+01  4660   0.341E+01    0.242E+00
DAV:   4    -0.233763248924E+02    0.19107E-01   -0.31302E-01  4040   0.416E+00    0.112E+00
DAV:   5    -0.233648521767E+02    0.11473E-01   -0.43702E-02  5348   0.169E+00    0.160E-01
DAV:   6    -0.233648161781E+02    0.35999E-04   -0.27799E-03  4180   0.375E-01    0.470E-02
DAV:   7    -0.233647960198E+02    0.20158E-04   -0.19109E-04  4084   0.149E-01    0.228E-02
DAV:   8    -0.233647930327E+02    0.29870E-05   -0.30572E-05  4552   0.534E-02    0.943E-03
DAV:   9    -0.233647940094E+02   -0.97664E-06   -0.76789E-06  4500   0.218E-02    0.801E-03
DAV:  10    -0.233647935107E+02    0.49865E-06   -0.25051E-06  4480   0.141E-02    0.342E-03
DAV:  11    -0.233647933609E+02    0.14988E-06   -0.31047E-07  4560   0.498E-03    0.290E-03
DAV:  12    -0.233647932894E+02    0.71473E-07   -0.45878E-07  4432   0.556E-03    0.150E-03
DAV:  13    -0.233647933700E+02   -0.80573E-07   -0.23251E-07  4648   0.451E-03    0.943E-04
DAV:  14    -0.233647933882E+02   -0.18286E-07   -0.10760E-07  3864   0.389E-03    0.765E-04
DAV:  15    -0.233647933731E+02    0.15158E-07   -0.52380E-08  2776   0.193E-03    0.247E-04
DAV:  16    -0.233647933839E+02   -0.10861E-07   -0.50890E-09  1812   0.867E-04    0.350E-04
DAV:  17    -0.233647933837E+02    0.23829E-09   -0.77837E-09  1804   0.850E-04
   9 F= -.23364793E+02 E0= -.23364290E+02  d E =-.527830E-01  mag=     0.0000
       N       E                     dE             d eps       ncg     rms          rms(c)
DAV:   1    -0.229454496580E+02    0.41934E+00   -0.14614E+01  4200   0.156E+02    0.534E+00
DAV:   2    -0.249363907771E+02   -0.19909E+01   -0.18260E+01  4460   0.385E+01    0.106E+01
DAV:   3    -0.234072256112E+02    0.15292E+01   -0.62684E+00  4512   0.268E+01    0.938E-01
DAV:   4    -0.233976781670E+02    0.95474E-02   -0.15842E-01  4108   0.273E+00    0.701E-01
DAV:   5    -0.233940092420E+02    0.36689E-02   -0.22495E-02  4552   0.185E+00    0.235E-01
DAV:   6    -0.233943104401E+02   -0.30120E-03   -0.12749E-02  4196   0.111E+00    0.357E-01
DAV:   7    -0.233934174232E+02    0.89302E-03   -0.62337E-03  4296   0.758E-01    0.625E-02
DAV:   8    -0.233933810180E+02    0.36405E-04   -0.16691E-04  4388   0.121E-01    0.249E-02
DAV:   9    -0.233933761310E+02    0.48869E-05   -0.10246E-05  4704   0.382E-02    0.144E-02
DAV:  10    -0.233933738545E+02    0.22765E-05   -0.97968E-06  5076   0.235E-02    0.122E-03
DAV:  11    -0.233933738455E+02    0.90376E-08   -0.50592E-07  3932   0.476E-03    0.614E-04
DAV:  12    -0.233933738647E+02   -0.19247E-07   -0.18911E-08  2988   0.106E-03    0.438E-04
DAV:  13    -0.233933738649E+02   -0.14097E-09   -0.16793E-09  1912   0.347E-04
  10 F= -.23393374E+02 E0= -.23392801E+02  d E =-.285805E-01  mag=     0.0002
       N       E                     dE             d eps       ncg     rms          rms(c)
DAV:   1    -0.230098558591E+02    0.38352E+00   -0.12546E+01  4176   0.144E+02    0.487E+00
DAV:   2    -0.246484677619E+02   -0.16386E+01   -0.15510E+01  4444   0.357E+01    0.965E+00
DAV:   3    -0.234111859477E+02    0.12373E+01   -0.54383E+00  4480   0.246E+01    0.911E-01
DAV:   4    -0.234032691840E+02    0.79168E-02   -0.12875E-01  4076   0.255E+00    0.640E-01
DAV:   5    -0.233999887472E+02    0.32804E-02   -0.20073E-02  4660   0.173E+00    0.208E-01
DAV:   6    -0.234000072036E+02   -0.18456E-04   -0.89912E-03  4088   0.949E-01    0.280E-01
DAV:   7    -0.233995112028E+02    0.49600E-03   -0.35169E-03  4428   0.590E-01    0.552E-02
DAV:   8    -0.233994767716E+02    0.34431E-04   -0.17454E-04  4496   0.131E-01    0.159E-02
DAV:   9    -0.233994744815E+02    0.22901E-05   -0.98055E-06  4424   0.385E-02    0.753E-03
DAV:  10    -0.233994736765E+02    0.80499E-06   -0.29643E-06  4496   0.121E-02    0.221E-03
DAV:  11    -0.233994736101E+02    0.66454E-07   -0.48643E-07  4328   0.603E-03    0.638E-04
DAV:  12    -0.233994736232E+02   -0.13127E-07   -0.24565E-08  3064   0.150E-03    0.160E-04
DAV:  13    -0.233994736249E+02   -0.17681E-08   -0.24566E-09  1928   0.393E-04
  11 F= -.23399474E+02 E0= -.23399253E+02  d E =-.346802E-01  mag=     0.0002
       N       E                     dE             d eps       ncg     rms          rms(c)
DAV:   1    -0.233803730828E+02    0.19101E-01   -0.66186E-01  4088   0.325E+01    0.101E+00
DAV:   2    -0.234593164456E+02   -0.78943E-01   -0.76512E-01  4448   0.731E+00    0.237E+00
DAV:   3    -0.234012198269E+02    0.58097E-01   -0.32366E-01  4512   0.499E+00    0.375E-01
DAV:   4    -0.234002819199E+02    0.93791E-03   -0.49872E-03  3928   0.720E-01    0.179E-01
DAV:   5    -0.233999915802E+02    0.29034E-03   -0.72127E-04  4696   0.331E-01    0.493E-02
DAV:   6    -0.233999804992E+02    0.11081E-04   -0.10355E-04  4168   0.978E-02    0.354E-02
DAV:   7    -0.233999735611E+02    0.69382E-05   -0.33939E-05  4136   0.590E-02    0.699E-03
DAV:   8    -0.233999737533E+02   -0.19222E-06   -0.12188E-06  4128   0.120E-02    0.170E-03
DAV:   9    -0.233999737876E+02   -0.34286E-07   -0.24526E-07  4488   0.477E-03    0.100E-03
DAV:  10    -0.233999737859E+02    0.16771E-08   -0.56251E-08  3412   0.241E-03
  12 F= -.23399974E+02 E0= -.23399616E+02  d E =-.351804E-01  mag=     0.0003
       N       E                     dE             d eps       ncg     rms          rms(c)
DAV:   1    -0.234570806867E+02   -0.57107E-01   -0.12238E+00  4520   0.166E+01    0.228E+00
DAV:   2    -0.236494084617E+02   -0.19233E+00   -0.22166E+00  4616   0.133E+01    0.530E+00
DAV:   3    -0.234121693618E+02    0.23724E+00   -0.13057E+00  4576   0.984E+00    0.727E-01
DAV:   4    -0.234052497591E+02    0.69196E-02   -0.29361E-02  3912   0.131E+00    0.212E-01
DAV:   5    -0.234049178496E+02    0.33191E-03   -0.26631E-03  4440   0.434E-01    0.322E-02
DAV:   6    -0.234049011886E+02    0.16661E-04   -0.81334E-05  3896   0.106E-01    0.189E-02
DAV:   7    -0.234049024607E+02   -0.12721E-05   -0.17813E-05  4184   0.415E-02    0.348E-03
DAV:   8    -0.234049022083E+02    0.25242E-06   -0.10406E-06  4056   0.113E-02    0.126E-03
DAV:   9    -0.234049022543E+02   -0.45996E-07   -0.84328E-08  4000   0.325E-03    0.220E-04
DAV:  10    -0.234049022564E+02   -0.20982E-08   -0.58826E-09  2088   0.100E-03
  13 F= -.23404902E+02 E0= -.23404827E+02  d E =-.492847E-02  mag=     0.0000
       N       E                     dE             d eps       ncg     rms          rms(c)
DAV:   1    -0.234130033681E+02   -0.81011E-02   -0.18490E-01  4520   0.651E+00    0.872E-01
DAV:   2    -0.234423963702E+02   -0.29393E-01   -0.32006E-01  4592   0.514E+00    0.199E+00
DAV:   3    -0.234064554956E+02    0.35941E-01   -0.18565E-01  4536   0.380E+00    0.274E-01
DAV:   4    -0.234054284583E+02    0.10270E-02   -0.41067E-03  3872   0.499E-01    0.806E-02
DAV:   5    -0.234053836848E+02    0.44774E-04   -0.37001E-04  4344   0.164E-01    0.134E-02
DAV:   6    -0.234053812723E+02    0.24125E-05   -0.12427E-05  4208   0.417E-02    0.670E-03
DAV:   7    -0.234053817309E+02   -0.45858E-06   -0.24201E-06  4072   0.141E-02    0.141E-03
DAV:   8    -0.234053817285E+02    0.23983E-08   -0.14391E-07  4152   0.400E-03    0.397E-04
DAV:   9    -0.234053817514E+02   -0.22854E-07   -0.91063E-09  2280   0.106E-03    0.965E-05
DAV:  10    -0.234053817496E+02    0.18099E-08   -0.23879E-09  1952   0.673E-04
  14 F= -.23405382E+02 E0= -.23405413E+02  d E =-.540796E-02  mag=     0.0000
       N       E                     dE             d eps       ncg     rms          rms(c)
DAV:   1    -0.234028509870E+02    0.25308E-02   -0.86877E-02  5152   0.120E+01    0.136E-01
DAV:   2    -0.234062864723E+02   -0.34355E-02   -0.34044E-02  4000   0.148E+00    0.274E-01
DAV:   3    -0.234055933243E+02    0.69315E-03   -0.50925E-03  4536   0.670E-01    0.564E-02
DAV:   4    -0.234055770058E+02    0.16319E-04   -0.11089E-04  4376   0.114E-01    0.302E-02
DAV:   5    -0.234055691478E+02    0.78580E-05   -0.14249E-05  4392   0.803E-02    0.847E-03
DAV:   6    -0.234055690222E+02    0.12554E-06   -0.38965E-06  4400   0.226E-02    0.379E-03
DAV:   7    -0.234055689932E+02    0.29010E-07   -0.45403E-07  4496   0.692E-03    0.951E-04
DAV:   8    -0.234055690031E+02   -0.98780E-08   -0.29050E-08  3440   0.287E-03
  15 F= -.23405569E+02 E0= -.23405580E+02  d E =-.187254E-03  mag=     0.0000
       N       E                     dE             d eps       ncg     rms          rms(c)
DAV:   1    -0.233905093390E+02    0.15060E-01   -0.48689E-01  5152   0.283E+01    0.320E-01
DAV:   2    -0.234097257977E+02   -0.19216E-01   -0.18978E-01  4008   0.349E+00    0.654E-01
DAV:   3    -0.234058490642E+02    0.38767E-02   -0.28141E-02  4576   0.157E+00    0.137E-01
DAV:   4    -0.234057479365E+02    0.10113E-03   -0.59601E-04  4336   0.267E-01    0.733E-02
DAV:   5    -0.234057005729E+02    0.47364E-04   -0.85351E-05  4416   0.193E-01    0.201E-02
DAV:   6    -0.234056992757E+02    0.12972E-05   -0.22127E-05  4424   0.544E-02    0.901E-03
DAV:   7    -0.234056990360E+02    0.23973E-06   -0.26379E-06  4440   0.168E-02    0.227E-03
DAV:   8    -0.234056990444E+02   -0.83746E-08   -0.16843E-07  4296   0.667E-03    0.319E-04
DAV:   9    -0.234056990567E+02   -0.12319E-07   -0.21546E-08  2728   0.126E-03    0.137E-04
DAV:  10    -0.234056990600E+02   -0.33515E-08   -0.21936E-09  1944   0.399E-04
  16 F= -.23405699E+02 E0= -.23405663E+02  d E =-.317310E-03  mag=     0.0000
       N       E                     dE             d eps       ncg     rms          rms(c)
DAV:   1    -0.234142183471E+02   -0.85193E-02   -0.10959E-01  3968   0.808E+00    0.114E+00
DAV:   2    -0.234913298606E+02   -0.77112E-01   -0.71631E-01  4640   0.767E+00    0.284E+00
DAV:   3    -0.234056078605E+02    0.85722E-01   -0.42208E-01  4544   0.596E+00    0.104E-01
DAV:   4    -0.234058583436E+02   -0.25048E-03   -0.47964E-03  3880   0.427E-01    0.121E-01
DAV:   5    -0.234057629837E+02    0.95360E-04   -0.69894E-04  4744   0.243E-01    0.265E-02
DAV:   6    -0.234057550735E+02    0.79102E-05   -0.65884E-05  4432   0.822E-02    0.117E-02
DAV:   7    -0.234057537880E+02    0.12854E-05   -0.98611E-06  4856   0.221E-02    0.343E-03
DAV:   8    -0.234057536881E+02    0.99969E-07   -0.35034E-07  4160   0.397E-03    0.326E-03
DAV:   9    -0.234057534679E+02    0.22013E-06   -0.51056E-07  4464   0.547E-03    0.181E-04
DAV:  10    -0.234057534556E+02    0.12373E-07   -0.28582E-08  3632   0.123E-03    0.816E-05
DAV:  11    -0.234057534501E+02    0.54579E-08   -0.10417E-09  1984   0.266E-04
  17 F= -.23405753E+02 E0= -.23405689E+02  d E =-.543901E-04  mag=     0.0000
       N       E                     dE             d eps       ncg     rms          rms(c)
DAV:   1    -0.234064885320E+02   -0.73508E-03   -0.95938E-03  3988   0.239E+00    0.328E-01
DAV:   2    -0.234133390713E+02   -0.68505E-02   -0.61603E-02  4600   0.220E+00    0.909E-01
DAV:   3    -0.234057751390E+02    0.75639E-02   -0.37525E-02  4516   0.170E+00    0.546E-02
DAV:   4    -0.234057748641E+02    0.27491E-06   -0.35517E-04  3768   0.132E-01    0.374E-02
DAV:   5    -0.234057654277E+02    0.94364E-05   -0.49729E-05  4568   0.675E-02    0.593E-03
DAV:   6    -0.234057652179E+02    0.20977E-06   -0.25577E-06  3852   0.175E-02    0.166E-03
DAV:   7    -0.234057653531E+02   -0.13520E-06   -0.17709E-07  4112   0.285E-03    0.399E-04
DAV:   8    -0.234057653858E+02   -0.32742E-07   -0.25668E-08  3168   0.134E-03    0.100E-04
DAV:   9    -0.234057653992E+02   -0.13388E-07   -0.17971E-09  1992   0.434E-04    0.386E-05
DAV:  10    -0.234057654029E+02   -0.36407E-08   -0.35789E-10  1872   0.177E-04
  18 F= -.23405765E+02 E0= -.23405709E+02  d E =-.663428E-04  mag=    -0.0000
       N       E                     dE             d eps       ncg     rms          rms(c)
DAV:   1    -0.234052320211E+02    0.53338E-03   -0.26906E-02  5852   0.636E+00    0.106E-01
DAV:   2    -0.234064595171E+02   -0.12275E-02   -0.11846E-02  4228   0.962E-01    0.271E-01
DAV:   3    -0.234058023222E+02    0.65719E-03   -0.35148E-03  4584   0.544E-01    0.262E-02
DAV:   4    -0.234057975511E+02    0.47711E-05   -0.52598E-05  4048   0.524E-02    0.154E-02
DAV:   5    -0.234057951424E+02    0.24086E-05   -0.11392E-05  4400   0.378E-02    0.398E-03
DAV:   6    -0.234057950843E+02    0.58109E-07   -0.14397E-06  4096   0.122E-02    0.121E-03
DAV:   7    -0.234057951466E+02   -0.62268E-07   -0.72619E-08  4200   0.214E-03    0.607E-04
DAV:   8    -0.234057951903E+02   -0.43724E-07   -0.14268E-08  2400   0.102E-03    0.909E-05
DAV:   9    -0.234057951911E+02   -0.76398E-09   -0.15224E-09  1856   0.509E-04
  19 F= -.23405795E+02 E0= -.23405731E+02  d E =-.297882E-04  mag=    -0.0000
       N       E                     dE             d eps       ncg     rms          rms(c)
DAV:   1    -0.234057950273E+02    0.16298E-06   -0.85806E-06  5868   0.114E-01    0.191E-03
DAV:   2    -0.234057954843E+02   -0.45697E-06   -0.38053E-06  4248   0.173E-02    0.483E-03
DAV:   3    -0.234057952368E+02    0.24755E-06   -0.11383E-06  4584   0.982E-03    0.463E-04
DAV:   4    -0.234057952289E+02    0.78335E-08   -0.15453E-08  2332   0.932E-04
  20 F= -.23405795E+02 E0= -.23405731E+02  d E =-.298261E-04  mag=    -0.0000
