   4   4   0   0
  0.1411112E+02  0.4697062E-09  0.4697062E-09  0.4653059E-09  0.5000000E-15
  1.000000000000000E-004
  CAR 
 unknown system                          
     24.43389772    -58.84347530  301      8.67261170      1.00000000
    -58.843  0.0000E+00  0.0000E+00  0.0000E+00  0.0000E+00
    -58.566  0.0000E+00  0.0000E+00  0.0000E+00  0.0000E+00
    -58.288  0.0000E+00  0.0000E+00  0.0000E+00  0.0000E+00
    -58.011  0.0000E+00  0.0000E+00  0.0000E+00  0.0000E+00
    -57.733  0.0000E+00  0.0000E+00  0.0000E+00  0.0000E+00
    -57.456  0.0000E+00  0.0000E+00  0.0000E+00  0.0000E+00
    -57.178  0.0000E+00  0.0000E+00  0.0000E+00  0.0000E+00
    -56.900  0.0000E+00  0.0000E+00  0.0000E+00  0.0000E+00
    -56.623  0.0000E+00  0.0000E+00  0.0000E+00  0.0000E+00
    -56.345  0.0000E+00  0.0000E+00  0.0000E+00  0.0000E+00
    -56.068  0.0000E+00  0.0000E+00  0.0000E+00  0.0000E+00
    -55.790  0.0000E+00  0.0000E+00  0.0000E+00  0.0000E+00
    -55.512  0.0000E+00  0.0000E+00  0.0000E+00  0.0000E+00
    -55.235  0.0000E+00  0.0000E+00  0.0000E+00  0.0000E+00
    -54.957  0.0000E+00  0.0000E+00  0.2000E+01  0.2000E+01
    -54.680  0.0000E+00  0.0000E+00  0.3000E+01  0.3000E+01
    -54.402  0.0000E+00  0.0000E+00  0.3000E+01  0.3000E+01
    -54.124  0.0000E+00  0.0000E+00  0.3000E+01  0.3000E+01
    -53.847  0.0000E+00  0.0000E+00  0.3000E+01  0.3000E+01
    -53.569  0.0000E+00  0.0000E+00  0.3000E+01  0.3000E+01
    -53.292  0.0000E+00  0.0000E+00  0.3000E+01  0.3000E+01
    -53.014  0.0000E+00  0.0000E+00  0.3000E+01  0.3000E+01
    -52.736  0.0000E+00  0.0000E+00  0.3000E+01  0.3000E+01
    -52.459  0.0000E+00  0.0000E+00  0.3000E+01  0.3000E+01
    -52.181  0.0000E+00  0.0000E+00  0.3000E+01  0.3000E+01
    -51.904  0.0000E+00  0.0000E+00  0.3000E+01  0.3000E+01
    -51.626  0.0000E+00  0.0000E+00  0.3000E+01  0.3000E+01
    -51.349  0.0000E+00  0.0000E+00  0.3000E+01  0.3000E+01
    -51.071  0.0000E+00  0.0000E+00  0.3000E+01  0.3000E+01
    -50.793  0.0000E+00  0.0000E+00  0.3000E+01  0.3000E+01
    -50.516  0.0000E+00  0.0000E+00  0.3000E+01  0.3000E+01
    -50.238  0.0000E+00  0.0000E+00  0.3000E+01  0.3000E+01
    -49.961  0.0000E+00  0.0000E+00  0.3000E+01  0.3000E+01
    -49.683  0.0000E+00  0.0000E+00  0.3000E+01  0.3000E+01
    -49.405  0.0000E+00  0.0000E+00  0.3000E+01  0.3000E+01
    -49.128  0.0000E+00  0.0000E+00  0.3000E+01  0.3000E+01
    -48.850  0.0000E+00  0.0000E+00  0.3000E+01  0.3000E+01
    -48.573  0.0000E+00  0.0000E+00  0.3000E+01  0.3000E+01
    -48.295  0.0000E+00  0.0000E+00  0.3000E+01  0.3000E+01
    -48.017  0.0000E+00  0.0000E+00  0.3000E+01  0.3000E+01
    -47.740  0.0000E+00  0.0000E+00  0.3000E+01  0.3000E+01
    -47.462  0.0000E+00  0.0000E+00  0.3000E+01  0.3000E+01
    -47.185  0.0000E+00  0.0000E+00  0.3000E+01  0.3000E+01
    -46.907  0.0000E+00  0.0000E+00  0.3000E+01  0.3000E+01
    -46.629  0.0000E+00  0.0000E+00  0.3000E+01  0.3000E+01
    -46.352  0.0000E+00  0.0000E+00  0.3000E+01  0.3000E+01
    -46.074  0.0000E+00  0.0000E+00  0.3000E+01  0.3000E+01
    -45.797  0.0000E+00  0.0000E+00  0.3000E+01  0.3000E+01
    -45.519  0.0000E+00  0.0000E+00  0.3000E+01  0.3000E+01
    -45.242  0.0000E+00  0.0000E+00  0.3000E+01  0.3000E+01
    -44.964  0.0000E+00  0.0000E+00  0.3000E+01  0.3000E+01
    -44.686  0.0000E+00  0.0000E+00  0.3000E+01  0.3000E+01
    -44.409  0.0000E+00  0.0000E+00  0.3000E+01  0.3000E+01
    -44.131  0.0000E+00  0.0000E+00  0.3000E+01  0.3000E+01
    -43.854  0.0000E+00  0.0000E+00  0.3000E+01  0.3000E+01
    -43.576  0.0000E+00  0.0000E+00  0.3000E+01  0.3000E+01
    -43.298  0.0000E+00  0.0000E+00  0.3000E+01  0.3000E+01
    -43.021  0.0000E+00  0.0000E+00  0.3000E+01  0.3000E+01
    -42.743  0.0000E+00  0.0000E+00  0.3000E+01  0.3000E+01
    -42.466  0.0000E+00  0.0000E+00  0.3000E+01  0.3000E+01
    -42.188  0.0000E+00  0.0000E+00  0.3000E+01  0.3000E+01
    -41.910  0.0000E+00  0.0000E+00  0.3000E+01  0.3000E+01
    -41.633  0.0000E+00  0.0000E+00  0.3000E+01  0.3000E+01
    -41.355  0.0000E+00  0.0000E+00  0.3000E+01  0.3000E+01
    -41.078  0.0000E+00  0.0000E+00  0.3000E+01  0.3000E+01
    -40.800  0.0000E+00  0.0000E+00  0.3000E+01  0.3000E+01
    -40.522  0.0000E+00  0.0000E+00  0.3000E+01  0.3000E+01
    -40.245  0.0000E+00  0.0000E+00  0.3000E+01  0.3000E+01
    -39.967  0.0000E+00  0.0000E+00  0.3000E+01  0.3000E+01
    -39.690  0.0000E+00  0.0000E+00  0.3000E+01  0.3000E+01
    -39.412  0.0000E+00  0.0000E+00  0.3000E+01  0.3000E+01
    -39.134  0.0000E+00  0.0000E+00  0.3000E+01  0.3000E+01
    -38.857  0.0000E+00  0.0000E+00  0.3000E+01  0.3000E+01
    -38.579  0.0000E+00  0.0000E+00  0.3000E+01  0.3000E+01
    -38.302  0.0000E+00  0.0000E+00  0.3000E+01  0.3000E+01
    -38.024  0.0000E+00  0.0000E+00  0.3000E+01  0.3000E+01
    -37.747  0.0000E+00  0.0000E+00  0.3000E+01  0.3000E+01
    -37.469  0.0000E+00  0.0000E+00  0.3000E+01  0.3000E+01
    -37.191  0.0000E+00  0.0000E+00  0.3000E+01  0.3000E+01
    -36.914  0.0000E+00  0.0000E+00  0.3000E+01  0.3000E+01
    -36.636  0.0000E+00  0.0000E+00  0.3000E+01  0.3000E+01
    -36.359  0.0000E+00  0.0000E+00  0.3000E+01  0.3000E+01
    -36.081  0.0000E+00  0.0000E+00  0.3000E+01  0.3000E+01
    -35.803  0.0000E+00  0.0000E+00  0.3000E+01  0.3000E+01
    -35.526  0.0000E+00  0.0000E+00  0.3000E+01  0.3000E+01
    -35.248  0.0000E+00  0.0000E+00  0.3000E+01  0.3000E+01
    -34.971  0.0000E+00  0.0000E+00  0.3000E+01  0.3000E+01
    -34.693  0.0000E+00  0.0000E+00  0.3000E+01  0.3000E+01
    -34.415  0.0000E+00  0.0000E+00  0.3000E+01  0.3000E+01
    -34.138  0.0000E+00  0.0000E+00  0.3000E+01  0.3000E+01
    -33.860  0.0000E+00  0.0000E+00  0.3000E+01  0.3000E+01
    -33.583  0.0000E+00  0.0000E+00  0.3000E+01  0.3000E+01
    -33.305  0.0000E+00  0.0000E+00  0.3000E+01  0.3000E+01
    -33.027  0.0000E+00  0.0000E+00  0.3000E+01  0.3000E+01
    -32.750  0.0000E+00  0.0000E+00  0.3000E+01  0.3000E+01
    -32.472  0.0000E+00  0.0000E+00  0.3000E+01  0.3000E+01
    -32.195  0.0000E+00  0.0000E+00  0.3000E+01  0.3000E+01
    -31.917  0.0000E+00  0.0000E+00  0.3000E+01  0.3000E+01
    -31.640  0.0000E+00  0.0000E+00  0.3000E+01  0.3000E+01
    -31.362  0.0000E+00  0.0000E+00  0.3000E+01  0.3000E+01
    -31.084  0.0000E+00  0.0000E+00  0.3000E+01  0.3000E+01
    -30.807  0.0000E+00  0.0000E+00  0.3000E+01  0.3000E+01
    -30.529  0.0000E+00  0.0000E+00  0.3000E+01  0.3000E+01
    -30.252  0.0000E+00  0.0000E+00  0.3000E+01  0.3000E+01
    -29.974  0.0000E+00  0.0000E+00  0.3000E+01  0.3000E+01
    -29.696  0.0000E+00  0.0000E+00  0.3000E+01  0.3000E+01
    -29.419  0.0000E+00  0.0000E+00  0.3000E+01  0.3000E+01
    -29.141  0.0000E+00  0.0000E+00  0.3000E+01  0.3000E+01
    -28.864  0.0000E+00  0.0000E+00  0.3000E+01  0.3000E+01
    -28.586  0.0000E+00  0.0000E+00  0.3000E+01  0.3000E+01
    -28.308  0.0000E+00  0.0000E+00  0.3000E+01  0.3000E+01
    -28.031  0.0000E+00  0.0000E+00  0.3000E+01  0.3000E+01
    -27.753  0.0000E+00  0.0000E+00  0.3000E+01  0.3000E+01
    -27.476  0.0000E+00  0.0000E+00  0.3000E+01  0.3000E+01
    -27.198  0.0000E+00  0.0000E+00  0.3000E+01  0.3000E+01
    -26.920  0.0000E+00  0.0000E+00  0.3000E+01  0.3000E+01
    -26.643  0.0000E+00  0.0000E+00  0.3000E+01  0.3000E+01
    -26.365  0.0000E+00  0.0000E+00  0.3000E+01  0.3000E+01
    -26.088  0.0000E+00  0.0000E+00  0.3000E+01  0.3000E+01
    -25.810  0.0000E+00  0.0000E+00  0.3000E+01  0.3000E+01
    -25.533  0.0000E+00  0.0000E+00  0.3000E+01  0.3000E+01
    -25.255  0.0000E+00  0.0000E+00  0.3000E+01  0.3000E+01
    -24.977  0.0000E+00  0.0000E+00  0.3000E+01  0.3000E+01
    -24.700  0.0000E+00  0.0000E+00  0.3000E+01  0.3000E+01
    -24.422  0.0000E+00  0.0000E+00  0.3000E+01  0.3000E+01
    -24.145  0.0000E+00  0.0000E+00  0.3000E+01  0.3000E+01
    -23.867  0.0000E+00  0.0000E+00  0.3000E+01  0.3000E+01
    -23.589  0.0000E+00  0.0000E+00  0.3000E+01  0.3000E+01
    -23.312  0.0000E+00  0.0000E+00  0.3000E+01  0.3000E+01
    -23.034  0.0000E+00  0.0000E+00  0.3000E+01  0.3000E+01
    -22.757  0.0000E+00  0.0000E+00  0.3000E+01  0.3000E+01
    -22.479  0.0000E+00  0.0000E+00  0.3000E+01  0.3000E+01
    -22.201  0.0000E+00  0.0000E+00  0.3000E+01  0.3000E+01
    -21.924  0.0000E+00  0.0000E+00  0.3000E+01  0.3000E+01
    -21.646  0.0000E+00  0.0000E+00  0.3000E+01  0.3000E+01
    -21.369  0.0000E+00  0.0000E+00  0.3000E+01  0.3000E+01
    -21.091  0.0000E+00  0.0000E+00  0.3000E+01  0.3000E+01
    -20.813  0.0000E+00  0.0000E+00  0.3000E+01  0.3000E+01
    -20.536  0.0000E+00  0.0000E+00  0.3000E+01  0.3000E+01
    -20.258  0.0000E+00  0.0000E+00  0.3000E+01  0.3000E+01
    -19.981  0.0000E+00  0.0000E+00  0.3000E+01  0.3000E+01
    -19.703  0.0000E+00  0.0000E+00  0.3000E+01  0.3000E+01
    -19.426  0.0000E+00  0.0000E+00  0.3000E+01  0.3000E+01
    -19.148  0.0000E+00  0.0000E+00  0.3000E+01  0.3000E+01
    -18.870  0.0000E+00  0.0000E+00  0.3000E+01  0.3000E+01
    -18.593  0.0000E+00  0.0000E+00  0.3000E+01  0.3000E+01
    -18.315  0.0000E+00  0.0000E+00  0.3000E+01  0.3000E+01
    -18.038  0.0000E+00  0.0000E+00  0.3000E+01  0.3000E+01
    -17.760  0.0000E+00  0.0000E+00  0.3000E+01  0.3000E+01
    -17.482  0.0000E+00  0.0000E+00  0.3000E+01  0.3000E+01
    -17.205  0.0000E+00  0.0000E+00  0.3000E+01  0.3000E+01
    -16.927  0.0000E+00  0.0000E+00  0.3000E+01  0.3000E+01
    -16.650  0.0000E+00  0.0000E+00  0.3000E+01  0.3000E+01
    -16.372  0.0000E+00  0.0000E+00  0.3000E+01  0.3000E+01
    -16.094  0.0000E+00  0.0000E+00  0.3000E+01  0.3000E+01
    -15.817  0.0000E+00  0.0000E+00  0.3000E+01  0.3000E+01
    -15.539  0.0000E+00  0.0000E+00  0.3000E+01  0.3000E+01
    -15.262  0.0000E+00  0.0000E+00  0.3000E+01  0.3000E+01
    -14.984  0.0000E+00  0.0000E+00  0.3000E+01  0.3000E+01
    -14.706  0.0000E+00  0.0000E+00  0.3000E+01  0.3000E+01
    -14.429  0.0000E+00  0.0000E+00  0.3000E+01  0.3000E+01
    -14.151  0.0000E+00  0.0000E+00  0.3000E+01  0.3000E+01
    -13.874  0.0000E+00  0.0000E+00  0.3000E+01  0.3000E+01
    -13.596  0.0000E+00  0.0000E+00  0.3000E+01  0.3000E+01
    -13.319  0.0000E+00  0.0000E+00  0.3000E+01  0.3000E+01
    -13.041  0.0000E+00  0.0000E+00  0.3000E+01  0.3000E+01
    -12.763  0.0000E+00  0.0000E+00  0.3000E+01  0.3000E+01
    -12.486  0.0000E+00  0.0000E+00  0.3000E+01  0.3000E+01
    -12.208  0.0000E+00  0.0000E+00  0.3000E+01  0.3000E+01
    -11.931  0.0000E+00  0.0000E+00  0.3000E+01  0.3000E+01
    -11.653  0.0000E+00  0.0000E+00  0.3000E+01  0.3000E+01
    -11.375  0.0000E+00  0.0000E+00  0.3000E+01  0.3000E+01
    -11.098  0.0000E+00  0.0000E+00  0.3000E+01  0.3000E+01
    -10.820  0.0000E+00  0.0000E+00  0.3000E+01  0.3000E+01
    -10.543  0.0000E+00  0.0000E+00  0.3000E+01  0.3000E+01
    -10.265  0.0000E+00  0.0000E+00  0.3000E+01  0.3000E+01
     -9.987  0.0000E+00  0.0000E+00  0.3000E+01  0.3000E+01
     -9.710  0.0000E+00  0.0000E+00  0.3000E+01  0.3000E+01
     -9.432  0.0000E+00  0.0000E+00  0.3000E+01  0.3000E+01
     -9.155  0.0000E+00  0.0000E+00  0.3000E+01  0.3000E+01
     -8.877  0.0000E+00  0.0000E+00  0.3000E+01  0.3000E+01
     -8.599  0.0000E+00  0.0000E+00  0.3000E+01  0.3000E+01
     -8.322  0.0000E+00  0.0000E+00  0.3000E+01  0.3000E+01
     -8.044  0.0000E+00  0.0000E+00  0.3000E+01  0.3000E+01
     -7.767  0.0000E+00  0.0000E+00  0.3000E+01  0.3000E+01
     -7.489  0.0000E+00  0.0000E+00  0.3000E+01  0.3000E+01
     -7.212  0.0000E+00  0.0000E+00  0.3000E+01  0.3000E+01
     -6.934  0.0000E+00  0.0000E+00  0.3000E+01  0.3000E+01
     -6.656  0.0000E+00  0.0000E+00  0.3000E+01  0.3000E+01
     -6.379  0.0000E+00  0.0000E+00  0.3000E+01  0.3000E+01
     -6.101  0.0000E+00  0.0000E+00  0.3000E+01  0.3000E+01
     -5.824  0.0000E+00  0.0000E+00  0.3000E+01  0.3000E+01
     -5.546  0.0000E+00  0.0000E+00  0.3000E+01  0.3000E+01
     -5.268  0.0000E+00  0.0000E+00  0.3000E+01  0.3000E+01
     -4.991  0.0000E+00  0.0000E+00  0.3000E+01  0.3000E+01
     -4.713  0.0000E+00  0.0000E+00  0.3000E+01  0.3000E+01
     -4.436  0.0000E+00  0.0000E+00  0.3000E+01  0.3000E+01
     -4.158  0.0000E+00  0.0000E+00  0.3000E+01  0.3000E+01
     -3.880  0.0000E+00  0.0000E+00  0.3000E+01  0.3000E+01
     -3.603  0.0000E+00  0.0000E+00  0.3000E+01  0.3000E+01
     -3.325  0.0000E+00  0.0000E+00  0.3000E+01  0.3000E+01
     -3.048  0.0000E+00  0.0000E+00  0.3000E+01  0.3000E+01
     -2.770  0.0000E+00  0.0000E+00  0.3000E+01  0.3000E+01
     -2.492  0.3558E-01  0.3558E-01  0.3002E+01  0.3002E+01
     -2.215  0.1202E+00  0.1202E+00  0.3024E+01  0.3024E+01
     -1.937  0.1585E+00  0.1585E+00  0.3063E+01  0.3063E+01
     -1.660  0.1886E+00  0.1886E+00  0.3111E+01  0.3111E+01
     -1.382  0.2286E+00  0.2286E+00  0.3169E+01  0.3169E+01
     -1.104  0.3002E+00  0.3002E+00  0.3244E+01  0.3244E+01
     -0.827  0.2886E+00  0.2886E+00  0.3327E+01  0.3327E+01
     -0.549  0.2680E+00  0.2680E+00  0.3403E+01  0.3403E+01
     -0.272  0.2593E+00  0.2593E+00  0.3476E+01  0.3476E+01
      0.006  0.3116E+00  0.3116E+00  0.3553E+01  0.3553E+01
      0.283  0.3371E+00  0.3371E+00  0.3644E+01  0.3644E+01
      0.561  0.3691E+00  0.3691E+00  0.3742E+01  0.3742E+01
      0.839  0.3908E+00  0.3908E+00  0.3847E+01  0.3847E+01
      1.116  0.4027E+00  0.4027E+00  0.3961E+01  0.3961E+01
      1.394  0.4786E+00  0.4786E+00  0.4084E+01  0.4084E+01
      1.671  0.5095E+00  0.5095E+00  0.4226E+01  0.4226E+01
      1.949  0.4998E+00  0.4998E+00  0.4367E+01  0.4367E+01
      2.227  0.4913E+00  0.4913E+00  0.4506E+01  0.4506E+01
      2.504  0.4508E+00  0.4508E+00  0.4636E+01  0.4636E+01
      2.782  0.4320E+00  0.4320E+00  0.4758E+01  0.4758E+01
      3.059  0.4595E+00  0.4595E+00  0.4880E+01  0.4880E+01
      3.337  0.5853E+00  0.5853E+00  0.5023E+01  0.5023E+01
      3.615  0.7161E+00  0.7161E+00  0.5203E+01  0.5203E+01
      3.892  0.7974E+00  0.7974E+00  0.5428E+01  0.5428E+01
      4.170  0.7042E+00  0.7042E+00  0.5638E+01  0.5638E+01
      4.447  0.7581E+00  0.7581E+00  0.5827E+01  0.5827E+01
      4.725  0.8540E+00  0.8540E+00  0.6043E+01  0.6043E+01
      5.003  0.9400E+00  0.9400E+00  0.6295E+01  0.6295E+01
      5.280  0.1008E+01  0.1008E+01  0.6532E+01  0.6532E+01
      5.558  0.1328E+01  0.1328E+01  0.6911E+01  0.6911E+01
      5.835  0.2490E+01  0.2490E+01  0.7408E+01  0.7408E+01
      6.113  0.2988E+01  0.2988E+01  0.8062E+01  0.8062E+01
      6.390  0.6683E+00  0.6683E+00  0.9019E+01  0.9019E+01
      6.668  0.1720E+01  0.1720E+01  0.9577E+01  0.9577E+01
      6.946  0.2005E+01  0.2005E+01  0.1015E+02  0.1015E+02
      7.223  0.1968E+01  0.1968E+01  0.1101E+02  0.1101E+02
      7.501  0.9818E+00  0.9818E+00  0.1139E+02  0.1139E+02
      7.778  0.8953E+00  0.8953E+00  0.1164E+02  0.1164E+02
      8.056  0.8507E+00  0.8507E+00  0.1189E+02  0.1189E+02
      8.334  0.8142E+00  0.8142E+00  0.1214E+02  0.1214E+02
      8.611  0.1044E+01  0.1044E+01  0.1244E+02  0.1244E+02
      8.889  0.8956E+00  0.8956E+00  0.1271E+02  0.1271E+02
      9.166  0.8034E+00  0.8034E+00  0.1295E+02  0.1295E+02
      9.444  0.6626E+00  0.6626E+00  0.1316E+02  0.1316E+02
      9.722  0.6239E+00  0.6239E+00  0.1333E+02  0.1333E+02
      9.999  0.6659E+00  0.6659E+00  0.1351E+02  0.1351E+02
     10.277  0.6911E+00  0.6911E+00  0.1369E+02  0.1369E+02
     10.554  0.7423E+00  0.7423E+00  0.1390E+02  0.1390E+02
     10.832  0.8853E+00  0.8853E+00  0.1411E+02  0.1411E+02
     11.110  0.8497E+00  0.8497E+00  0.1435E+02  0.1435E+02
     11.387  0.7549E+00  0.7549E+00  0.1458E+02  0.1458E+02
     11.665  0.8820E+00  0.8820E+00  0.1480E+02  0.1480E+02
     11.942  0.8641E+00  0.8641E+00  0.1505E+02  0.1505E+02
     12.220  0.8804E+00  0.8804E+00  0.1528E+02  0.1528E+02
     12.497  0.8541E+00  0.8541E+00  0.1553E+02  0.1553E+02
     12.775  0.7749E+00  0.7749E+00  0.1575E+02  0.1575E+02
     13.053  0.8663E+00  0.8663E+00  0.1598E+02  0.1598E+02
     13.330  0.8241E+00  0.8241E+00  0.1621E+02  0.1621E+02
     13.608  0.8547E+00  0.8547E+00  0.1645E+02  0.1645E+02
     13.885  0.9300E+00  0.9300E+00  0.1669E+02  0.1669E+02
     14.163  0.8549E+00  0.8549E+00  0.1695E+02  0.1695E+02
     14.441  0.8725E+00  0.8725E+00  0.1719E+02  0.1719E+02
     14.718  0.9139E+00  0.9139E+00  0.1744E+02  0.1744E+02
     14.996  0.9024E+00  0.9024E+00  0.1769E+02  0.1769E+02
     15.273  0.9713E+00  0.9713E+00  0.1795E+02  0.1795E+02
     15.551  0.8908E+00  0.8908E+00  0.1821E+02  0.1821E+02
     15.829  0.8095E+00  0.8095E+00  0.1845E+02  0.1845E+02
     16.106  0.7987E+00  0.7987E+00  0.1867E+02  0.1867E+02
     16.384  0.8093E+00  0.8093E+00  0.1890E+02  0.1890E+02
     16.661  0.8112E+00  0.8112E+00  0.1913E+02  0.1913E+02
     16.939  0.6453E+00  0.6453E+00  0.1933E+02  0.1933E+02
     17.217  0.4918E+00  0.4918E+00  0.1949E+02  0.1949E+02
     17.494  0.4811E+00  0.4811E+00  0.1962E+02  0.1962E+02
     17.772  0.3729E+00  0.3729E+00  0.1974E+02  0.1974E+02
     18.049  0.2488E+00  0.2488E+00  0.1983E+02  0.1983E+02
     18.327  0.1728E+00  0.1728E+00  0.1989E+02  0.1989E+02
     18.604  0.1078E+00  0.1078E+00  0.1992E+02  0.1992E+02
     18.882  0.8416E-01  0.8416E-01  0.1995E+02  0.1995E+02
     19.160  0.6576E-01  0.6576E-01  0.1997E+02  0.1997E+02
     19.437  0.3681E-01  0.3681E-01  0.1999E+02  0.1999E+02
     19.715  0.1931E-01  0.1931E-01  0.1999E+02  0.1999E+02
     19.992  0.1039E-01  0.1039E-01  0.2000E+02  0.2000E+02
     20.270  0.4659E-02  0.4659E-02  0.2000E+02  0.2000E+02
     20.548  0.8654E-03  0.8654E-03  0.2000E+02  0.2000E+02
     20.825  0.0000E+00  0.0000E+00  0.2000E+02  0.2000E+02
     21.103  0.0000E+00  0.0000E+00  0.2000E+02  0.2000E+02
     21.380  0.0000E+00  0.0000E+00  0.2000E+02  0.2000E+02
     21.658  0.0000E+00  0.0000E+00  0.2000E+02  0.2000E+02
     21.936  0.0000E+00  0.0000E+00  0.2000E+02  0.2000E+02
     22.213  0.0000E+00  0.0000E+00  0.2000E+02  0.2000E+02
     22.491  0.0000E+00  0.0000E+00  0.2000E+02  0.2000E+02
     22.768  0.0000E+00  0.0000E+00  0.2000E+02  0.2000E+02
     23.046  0.0000E+00  0.0000E+00  0.2000E+02  0.2000E+02
     23.324  0.0000E+00  0.0000E+00  0.2000E+02  0.2000E+02
     23.601  0.0000E+00  0.0000E+00  0.2000E+02  0.2000E+02
     23.879  0.0000E+00  0.0000E+00  0.2000E+02  0.2000E+02
     24.156  0.0000E+00  0.0000E+00  0.2000E+02  0.2000E+02
     24.434  0.0000E+00  0.0000E+00  0.2000E+02  0.2000E+02
