       N       E                     dE             d eps       ncg     rms          rms(c)
DAV:   1    -0.179098710461E+02   -0.17910E+02   -0.36677E-01  8000   0.839E+00    0.203E-01
DAV:   2    -0.179114906355E+02   -0.16196E-02   -0.18973E-02 10864   0.141E+00    0.493E-01
DAV:   3    -0.179094688391E+02    0.20218E-02   -0.12346E-02  9088   0.131E+00    0.756E-02
DAV:   4    -0.179095107458E+02   -0.41907E-04   -0.39811E-04  9600   0.176E-01    0.191E-02
DAV:   5    -0.179094956179E+02    0.15128E-04   -0.26429E-05  9728   0.442E-02    0.867E-03
DAV:   6    -0.179094977821E+02   -0.21642E-05   -0.28685E-06  9816   0.204E-02    0.195E-03
DAV:   7    -0.179094978875E+02   -0.10532E-06   -0.14744E-07 10280   0.464E-03    0.238E-04
DAV:   8    -0.179094977765E+02    0.11093E-06   -0.51331E-09  5240   0.617E-04    0.109E-04
DAV:   9    -0.179094978579E+02   -0.81364E-07   -0.80943E-10  4624   0.350E-04    0.135E-05
DAV:  10    -0.179094978576E+02    0.32469E-09   -0.17740E-10  4392   0.142E-04
   1 F= -.17909498E+02 E0= -.17909498E+02  d E =0.000000E+00  mag=    -0.0000
