 running on   24 total cores
 distrk:  each k-point on   24 cores,    1 groups
 distr:  one band on    6 cores,    4 groups
 using from now: INCAR     
 vasp.5.4.4.18Apr17-6-g9f103f2a35 (build Jan 03 2018 06:08:52) complex          
  
 POSCAR found :  2 types and       4 ions
 scaLAPACK will be used
 WARNING: for PREC=h ENMAX is automatically increase by 25 %
        this was not the case for versions prior to vasp.4.4
 WARNING: for PREC=h ENMAX is automatically increase by 25 %
        this was not the case for versions prior to vasp.4.4
 LDA part: xc-table for Pade appr. of Perdew
 POSCAR, INCAR and KPOINTS ok, starting setup
 FFT: planning ...
 WAVECAR not read
 entering main loop
       N       E                     dE             d eps       ncg     rms          rms(c)
DAV:   1     0.130963549357E+03    0.13096E+03   -0.13597E+04  9600   0.113E+03
DAV:   2    -0.140442863815E+02   -0.14501E+03   -0.13999E+03  8272   0.303E+02
DAV:   3    -0.184226054119E+02   -0.43783E+01   -0.43082E+01  9912   0.583E+01
DAV:   4    -0.184990254668E+02   -0.76420E-01   -0.76312E-01  9208   0.764E+00
DAV:   5    -0.185012432865E+02   -0.22178E-02   -0.22177E-02  9484   0.139E+00    0.226E+01
DAV:   6    -0.344129459262E+02   -0.15912E+02   -0.26073E+02  8992   0.188E+02    0.301E+01
DAV:   7    -0.173069484524E+02    0.17106E+02   -0.35960E+01 10040   0.994E+01    0.101E+01
DAV:   8    -0.160548969983E+02    0.12521E+01   -0.68810E+00 10992   0.378E+01    0.172E+00
DAV:   9    -0.160678886668E+02   -0.12992E-01   -0.61774E-01 10456   0.926E+00    0.174E+00
DAV:  10    -0.160357982288E+02    0.32090E-01   -0.97686E-02 11376   0.373E+00    0.378E-01
DAV:  11    -0.160379489527E+02   -0.21507E-02   -0.30429E-02 12160   0.200E+00    0.493E-01
DAV:  12    -0.160358378699E+02    0.21111E-02   -0.55552E-03 11880   0.823E-01    0.196E-01
DAV:  13    -0.160354530400E+02    0.38483E-03   -0.15232E-03 12032   0.424E-01    0.310E-02
DAV:  14    -0.160354512440E+02    0.17960E-05   -0.44243E-05  8820   0.481E-02    0.240E-02
DAV:  15    -0.160354437870E+02    0.74569E-05   -0.39842E-05 10912   0.746E-02    0.394E-03
DAV:  16    -0.160354441276E+02   -0.34059E-06   -0.20998E-06 11308   0.119E-02    0.690E-03
DAV:  17    -0.160354434661E+02    0.66148E-06   -0.16461E-06 10772   0.149E-02    0.119E-03
DAV:  18    -0.160354434046E+02    0.61538E-07   -0.19264E-07 12304   0.418E-03    0.593E-04
DAV:  19    -0.160354434091E+02   -0.45029E-08   -0.15037E-08  4684   0.148E-03
   1 F= -.16035443E+02 E0= -.16035574E+02  d E =-.160354E+02  mag=    -0.0000
 curvature:   0.00 expect dE= 0.000E+00 dE for cont linesearch  0.000E+00
 trial: gam= 0.00000 g(F)=  0.958E-01 g(S)=  0.731E+01 ort = 0.000E+00 (trialstep = 0.100E+01)
 search vector abs. value=  0.740E+01
 bond charge predicted
       N       E                     dE             d eps       ncg     rms          rms(c)
DAV:   1    -0.128442630404E+03   -0.11241E+03   -0.21552E+03  8208   0.752E+02    0.728E+01
DAV:   2    -0.254717349877E+02    0.10297E+03   -0.45932E+02  8844   0.197E+02    0.178E+01
DAV:   3    -0.333206348638E+02   -0.78489E+01   -0.23249E+02  8824   0.123E+02    0.306E+01
DAV:   4    -0.180211428945E+02    0.15299E+02   -0.49461E+01 10288   0.872E+01    0.839E+00
DAV:   5    -0.185350465571E+02   -0.51390E+00   -0.28084E+01  8980   0.469E+01    0.120E+01
DAV:   6    -0.168094655235E+02    0.17256E+01   -0.30844E+00  9960   0.231E+01    0.334E+00
DAV:   7    -0.167504913896E+02    0.58974E-01   -0.47582E-01  9804   0.574E+00    0.370E-01
DAV:   8    -0.167567782173E+02   -0.62868E-02   -0.23564E-02  9524   0.122E+00    0.844E-01
DAV:   9    -0.167556052366E+02    0.11730E-02   -0.90426E-02 10092   0.237E+00    0.774E-01
DAV:  10    -0.167517840142E+02    0.38212E-02   -0.12593E-02  9612   0.858E-01    0.186E-01
DAV:  11    -0.167518087737E+02   -0.24760E-04   -0.14683E-04  9056   0.102E-01    0.199E-01
DAV:  12    -0.167515595368E+02    0.24924E-03   -0.78672E-04  9792   0.216E-01    0.479E-02
DAV:  13    -0.167515520662E+02    0.74706E-05   -0.44414E-05 10180   0.470E-02    0.179E-02
DAV:  14    -0.167515506315E+02    0.14347E-05   -0.85927E-06 11352   0.226E-02    0.257E-03
DAV:  15    -0.167515507179E+02   -0.86395E-07   -0.16547E-07  8908   0.282E-03    0.229E-03
DAV:  16    -0.167515506922E+02    0.25741E-07   -0.17378E-07  9096   0.300E-03    0.307E-04
DAV:  17    -0.167515506942E+02   -0.20777E-08   -0.58358E-09  4660   0.632E-04
   2 F= -.16751551E+02 E0= -.16751533E+02  d E =-.716107E+00  mag=    -0.0000
 trial-energy change:   -0.716107  1 .order   -1.193342   -7.403316    5.016633
 step:   0.5388(harm=  0.5961)  dis= 0.02416  next Energy=   -17.955224 (dE=-0.192E+01)
 bond charge predicted
       N       E                     dE             d eps       ncg     rms          rms(c)
DAV:   1    -0.854146297958E+02   -0.68663E+02   -0.68009E+02  9900   0.287E+02    0.819E+01
DAV:   2    -0.158143417077E+03   -0.72729E+02   -0.17032E+03 12984   0.381E+02    0.871E+01
DAV:   3    -0.356553065684E+02    0.12249E+03   -0.83384E+02  9820   0.190E+02    0.246E+01
DAV:   4    -0.293922620818E+02    0.62630E+01   -0.29123E+01  9372   0.459E+01    0.190E+01
DAV:   5    -0.213230853925E+02    0.80692E+01   -0.77680E+00 10100   0.378E+01    0.119E+01
DAV:   6    -0.238108493092E+02   -0.24878E+01   -0.59305E+01 11780   0.849E+01    0.316E+01
DAV:   7    -0.177893260279E+02    0.60215E+01   -0.35140E+01 10472   0.401E+01    0.187E+00
DAV:   8    -0.178100195581E+02   -0.20694E-01   -0.34774E-01  8848   0.490E+00    0.175E+00
DAV:   9    -0.178254906237E+02   -0.15471E-01   -0.37617E-02  9320   0.236E+00    0.234E+00
DAV:  10    -0.177893071649E+02    0.36183E-01   -0.76087E-02  9928   0.254E+00    0.884E-01
DAV:  11    -0.177824504699E+02    0.68567E-02   -0.37224E-02 11752   0.183E+00    0.192E-01
DAV:  12    -0.177823749475E+02    0.75522E-04   -0.80899E-04  8928   0.195E-01    0.165E-01
DAV:  13    -0.177843840069E+02   -0.20091E-02   -0.71710E-03 11256   0.662E-01    0.530E-01
DAV:  14    -0.177825642846E+02    0.18197E-02   -0.39615E-03  9248   0.682E-01    0.202E-01
DAV:  15    -0.177824654845E+02    0.98800E-04   -0.14942E-04  8616   0.118E-01    0.204E-01
DAV:  16    -0.177821276898E+02    0.33779E-03   -0.91022E-04 11212   0.264E-01    0.445E-02
DAV:  17    -0.177821144333E+02    0.13256E-04   -0.12333E-04 12376   0.962E-02    0.115E-02
DAV:  18    -0.177821143631E+02    0.70245E-07   -0.24558E-06  8760   0.130E-02    0.817E-03
DAV:  19    -0.177821140331E+02    0.32997E-06   -0.20601E-06  9108   0.170E-02    0.844E-04
DAV:  20    -0.177821141504E+02   -0.11727E-06   -0.19188E-07 11920   0.336E-03    0.135E-03
DAV:  21    -0.177821141351E+02    0.15250E-07   -0.27946E-08  4484   0.150E-03    0.483E-04
DAV:  22    -0.177821141275E+02    0.75938E-08   -0.12379E-08  4500   0.666E-04
   3 F= -.17782114E+02 E0= -.17781840E+02  d E =-.174667E+01  mag=     0.0000
 curvature:  -0.29 expect dE=-0.122E-01 dE for cont linesearch -0.553E-03
 ZBRENT: interpolating
 opt :   0.5303  next Energy=   -17.782616 (dE=-0.175E+01)
 bond charge predicted
       N       E                     dE             d eps       ncg     rms          rms(c)
DAV:   1    -0.178086313691E+02   -0.26517E-01   -0.21552E-01  8872   0.601E+00    0.202E+00
DAV:   2    -0.180726780928E+02   -0.26405E+00   -0.25237E+00  9240   0.166E+01    0.546E+00
DAV:   3    -0.177821210722E+02    0.29056E+00   -0.11435E+00  9128   0.133E+01    0.245E-01
DAV:   4    -0.177831203945E+02   -0.99932E-03   -0.26039E-02  9084   0.107E+00    0.289E-01
DAV:   5    -0.177826778007E+02    0.44259E-03   -0.34141E-03  9580   0.608E-01    0.489E-02
DAV:   6    -0.177826512437E+02    0.26557E-04   -0.13257E-04  9944   0.104E-01    0.753E-03
DAV:   7    -0.177826522367E+02   -0.99302E-06   -0.81003E-06 10332   0.292E-02    0.133E-02
DAV:   8    -0.177826506501E+02    0.15866E-05   -0.96438E-06 10860   0.277E-02    0.306E-03
DAV:   9    -0.177826505229E+02    0.12726E-06   -0.35338E-07  9352   0.518E-03    0.652E-04
DAV:  10    -0.177826504882E+02    0.34635E-07   -0.12731E-08  4948   0.967E-04    0.138E-04
DAV:  11    -0.177826504771E+02    0.11148E-07   -0.29825E-09  4424   0.436E-04    0.451E-05
DAV:  12    -0.177826504745E+02    0.25625E-08   -0.61215E-10  4244   0.273E-04
   4 F= -.17782650E+02 E0= -.17782388E+02  d E =-.174721E+01  mag=     0.0000
 curvature:  -0.27 expect dE=-0.103E-01 dE for cont linesearch -0.222E-04
 ZBRENT: interpolating
 opt :   0.5281  next Energy=   -17.782679 (dE=-0.175E+01)
 bond charge predicted
       N       E                     dE             d eps       ncg     rms          rms(c)
DAV:   1    -0.177844930028E+02   -0.18425E-02   -0.15129E-02  8864   0.160E+00    0.534E-01
DAV:   2    -0.178053244465E+02   -0.20831E-01   -0.17621E-01  9304   0.442E+00    0.166E+00
DAV:   3    -0.177826582485E+02    0.22666E-01   -0.10235E-01  9240   0.354E+00    0.586E-02
DAV:   4    -0.177826778544E+02   -0.19606E-04   -0.11154E-03  8584   0.201E-01    0.394E-02
DAV:   5    -0.177826713735E+02    0.64809E-05   -0.27500E-05 10456   0.543E-02    0.119E-02
DAV:   6    -0.177826706901E+02    0.68339E-06   -0.29499E-06 11888   0.156E-02    0.216E-03
DAV:   7    -0.177826706774E+02    0.12736E-07   -0.11089E-07  8952   0.322E-03    0.329E-04
DAV:   8    -0.177826706542E+02    0.23179E-07   -0.18197E-08  5020   0.149E-03    0.451E-04
DAV:   9    -0.177826706442E+02    0.10045E-07   -0.63059E-09  4356   0.100E-03    0.409E-05
DAV:  10    -0.177826706415E+02    0.26889E-08   -0.37095E-10  4196   0.186E-04
   5 F= -.17782671E+02 E0= -.17782411E+02  d E =-.174723E+01  mag=     0.0000
 curvature:  -0.34 expect dE=-0.129E-01 dE for cont linesearch -0.149E-07
 trial: gam= 0.00511 g(F)=  0.290E-01 g(S)=  0.937E-02 ort = 0.572E-03 (trialstep = 0.906E+00)
 search vector abs. value=  0.386E-01
 bond charge predicted
       N       E                     dE             d eps       ncg     rms          rms(c)
DAV:   1    -0.178432946089E+02   -0.60624E-01   -0.85847E-01  8512   0.824E+00    0.174E+00
DAV:   2    -0.179273406603E+02   -0.84046E-01   -0.94517E-01  9484   0.101E+01    0.355E+00
DAV:   3    -0.178150960858E+02    0.11224E+00   -0.54305E-01  9200   0.867E+00    0.506E-01
DAV:   4    -0.178125230464E+02    0.25730E-02   -0.14764E-02  9552   0.870E-01    0.138E-01
DAV:   5    -0.178123812212E+02    0.14183E-03   -0.15062E-03  9140   0.458E-01    0.624E-02
DAV:   6    -0.178123614086E+02    0.19813E-04   -0.20351E-04  9812   0.151E-01    0.139E-02
DAV:   7    -0.178123623873E+02   -0.97871E-06   -0.17036E-05 11768   0.343E-02    0.801E-03
DAV:   8    -0.178123619667E+02    0.42053E-06   -0.24989E-06 10044   0.161E-02    0.121E-03
DAV:   9    -0.178123619165E+02    0.50222E-07   -0.11339E-07  9184   0.361E-03    0.672E-04
DAV:  10    -0.178123618970E+02    0.19503E-07   -0.23718E-08  4876   0.163E-03    0.188E-04
DAV:  11    -0.178123618920E+02    0.49781E-08   -0.34069E-09  4520   0.698E-04
   6 F= -.17812362E+02 E0= -.17811999E+02  d E =-.296913E-01  mag=     0.0000
 trial-energy change:   -0.029691  1 .order   -0.029837   -0.034760   -0.024914
 step:   3.1972(harm=  3.1972)  dis= 0.07764  next Energy=   -17.844030 (dE=-0.614E-01)
 bond charge predicted
       N       E                     dE             d eps       ncg     rms          rms(c)
DAV:   1    -0.180404479772E+02   -0.22809E+00   -0.54477E+00  8476   0.208E+01    0.454E+00
DAV:   2    -0.185063261409E+02   -0.46588E+00   -0.64912E+00  9432   0.262E+01    0.774E+00
DAV:   3    -0.178550579406E+02    0.65127E+00   -0.25900E+00  9236   0.224E+01    0.102E+00
DAV:   4    -0.178462036842E+02    0.88543E-02   -0.10475E-01  9464   0.214E+00    0.701E-01
DAV:   5    -0.178430338923E+02    0.31698E-02   -0.34598E-02  9664   0.193E+00    0.266E-01
DAV:   6    -0.178424634948E+02    0.57040E-03   -0.28907E-03 10208   0.540E-01    0.494E-02
DAV:   7    -0.178424669145E+02   -0.34197E-05   -0.21946E-04 11864   0.145E-01    0.264E-02
DAV:   8    -0.178424659126E+02    0.10019E-05   -0.62241E-05 11240   0.742E-02    0.129E-02
DAV:   9    -0.178424642527E+02    0.16599E-05   -0.74633E-06 10852   0.276E-02    0.809E-04
DAV:  10    -0.178424641930E+02    0.59708E-07   -0.15694E-07  9780   0.325E-03    0.469E-04
DAV:  11    -0.178424641846E+02    0.83769E-08   -0.68916E-09  5000   0.884E-04
   7 F= -.17842464E+02 E0= -.17842368E+02  d E =-.597935E-01  mag=     0.0000
 curvature:  -1.61 expect dE=-0.207E-01 dE for cont linesearch -0.180E-03
 trial: gam= 0.41160 g(F)=  0.796E-02 g(S)=  0.493E-02 ort =-0.208E-02 (trialstep = 0.136E+01)
 search vector abs. value=  0.177E-01
 bond charge predicted
       N       E                     dE             d eps       ncg     rms          rms(c)
DAV:   1    -0.181532511510E+02   -0.31079E+00   -0.34496E+00  9048   0.237E+01    0.600E+00
DAV:   2    -0.202348578515E+02   -0.20816E+01   -0.19574E+01  9728   0.490E+01    0.187E+01
DAV:   3    -0.178645389252E+02    0.23703E+01   -0.17051E+01  9400   0.343E+01    0.170E+00
DAV:   4    -0.178491393331E+02    0.15400E-01   -0.19032E-01  8760   0.414E+00    0.409E-01
DAV:   5    -0.178474282304E+02    0.17111E-02   -0.60176E-03 12016   0.599E-01    0.908E-02
DAV:   6    -0.178472831162E+02    0.14511E-03   -0.26871E-04  8744   0.191E-01    0.677E-02
DAV:   7    -0.178472535722E+02    0.29544E-04   -0.19474E-04 10560   0.141E-01    0.121E-02
DAV:   8    -0.178472533293E+02    0.24287E-06   -0.71771E-06  9048   0.277E-02    0.450E-03
DAV:   9    -0.178472532842E+02    0.45093E-07   -0.45773E-07  9752   0.741E-03    0.185E-03
DAV:  10    -0.178472533541E+02   -0.69910E-07   -0.83061E-08  8368   0.278E-03    0.426E-04
DAV:  11    -0.178472533650E+02   -0.10863E-07   -0.55693E-09  4604   0.708E-04    0.900E-05
DAV:  12    -0.178472533658E+02   -0.83446E-09   -0.91068E-10  4472   0.269E-04
   8 F= -.17847253E+02 E0= -.17847341E+02  d E =-.478918E-02  mag=     0.0000
 trial-energy change:   -0.004789  1 .order   -0.004865   -0.016415    0.006685
 step:   0.9636(harm=  0.9692)  dis= 0.01065  next Energy=   -17.848236 (dE=-0.577E-02)
 bond charge predicted
       N       E                     dE             d eps       ncg     rms          rms(c)
DAV:   1    -0.178772194920E+02   -0.29966E-01   -0.30217E-01  9096   0.685E+00    0.203E+00
DAV:   2    -0.180957794512E+02   -0.21856E+00   -0.23055E+00  9288   0.166E+01    0.499E+00
DAV:   3    -0.178479146559E+02    0.24786E+00   -0.10162E+00  9096   0.129E+01    0.246E-01
DAV:   4    -0.178491229669E+02   -0.12083E-02   -0.28609E-02  9416   0.117E+00    0.355E-01
DAV:   5    -0.178482338363E+02    0.88913E-03   -0.50534E-03  9848   0.732E-01    0.277E-02
DAV:   6    -0.178482291566E+02    0.46797E-05   -0.77548E-05  8992   0.625E-02    0.124E-02
DAV:   7    -0.178482280402E+02    0.11164E-05   -0.97886E-06  9280   0.358E-02    0.425E-03
DAV:   8    -0.178482278800E+02    0.16022E-06   -0.14668E-06 10144   0.131E-02    0.192E-03
DAV:   9    -0.178482277634E+02    0.11657E-06   -0.13552E-07  8896   0.376E-03    0.198E-04
DAV:  10    -0.178482277521E+02    0.11342E-07   -0.45745E-09  4732   0.580E-04    0.581E-05
DAV:  11    -0.178482277471E+02    0.49467E-08   -0.83030E-10  4384   0.305E-04
   9 F= -.17848228E+02 E0= -.17848251E+02  d E =-.576356E-02  mag=    -0.0000
 curvature:  -0.71 expect dE=-0.212E-02 dE for cont linesearch -0.388E-08
 trial: gam= 0.13942 g(F)=  0.109E-02 g(S)=  0.187E-02 ort =-0.982E-05 (trialstep = 0.128E+01)
 search vector abs. value=  0.331E-02
 bond charge predicted
       N       E                     dE             d eps       ncg     rms          rms(c)
DAV:   1    -0.179087642682E+02   -0.60537E-01   -0.62435E-01  9248   0.957E+00    0.291E+00
DAV:   2    -0.183460256557E+02   -0.43726E+00   -0.47532E+00  9216   0.237E+01    0.682E+00
DAV:   3    -0.178499301877E+02    0.49610E+00   -0.18521E+00  9064   0.186E+01    0.420E-01
DAV:   4    -0.178520344391E+02   -0.21043E-02   -0.66657E-02 10072   0.183E+00    0.495E-01
DAV:   5    -0.178504354744E+02    0.15990E-02   -0.10387E-02  9456   0.109E+00    0.467E-02
DAV:   6    -0.178504142768E+02    0.21198E-04   -0.18274E-04  9152   0.116E-01    0.192E-02
DAV:   7    -0.178504131195E+02    0.11573E-05   -0.42719E-05 10104   0.726E-02    0.134E-02
DAV:   8    -0.178504117872E+02    0.13324E-05   -0.13032E-05 10520   0.368E-02    0.412E-03
DAV:   9    -0.178504115471E+02    0.24001E-06   -0.63913E-07  9968   0.848E-03    0.579E-04
DAV:  10    -0.178504115048E+02    0.42355E-07   -0.19338E-08  5756   0.143E-03    0.104E-04
DAV:  11    -0.178504114977E+02    0.70449E-08   -0.33507E-09  4528   0.607E-04
  10 F= -.17850411E+02 E0= -.17850277E+02  d E =-.218375E-02  mag=    -0.0000
 trial-energy change:   -0.002184  1 .order   -0.002186   -0.003809   -0.000562
 step:   1.5063(harm=  1.5063)  dis= 0.00599  next Energy=   -17.850462 (dE=-0.223E-02)
 bond charge predicted
       N       E                     dE             d eps       ncg     rms          rms(c)
DAV:   1    -0.178521809641E+02   -0.17695E-02   -0.18811E-02  9208   0.167E+00    0.488E-01
DAV:   2    -0.178656688723E+02   -0.13488E-01   -0.13245E-01  9344   0.399E+00    0.132E+00
DAV:   3    -0.178504563558E+02    0.15213E-01   -0.73637E-02  9152   0.312E+00    0.581E-02
DAV:   4    -0.178504755027E+02   -0.19147E-04   -0.90073E-04  8760   0.187E-01    0.429E-02
DAV:   5    -0.178504641310E+02    0.11372E-04   -0.65339E-05 10400   0.862E-02    0.544E-03
DAV:   6    -0.178504638886E+02    0.24247E-06   -0.16136E-06  8992   0.125E-02    0.142E-03
DAV:   7    -0.178504638663E+02    0.22249E-07   -0.76047E-08  9192   0.209E-03    0.564E-04
DAV:   8    -0.178504638439E+02    0.22450E-07   -0.11767E-08  5040   0.943E-04    0.213E-04
DAV:   9    -0.178504638295E+02    0.14339E-07   -0.29479E-09  4440   0.732E-04    0.311E-05
DAV:  10    -0.178504638271E+02    0.24634E-08   -0.42721E-10  4392   0.212E-04
  11 F= -.17850464E+02 E0= -.17850307E+02  d E =-.223608E-02  mag=     0.0000
 curvature:  -0.84 expect dE=-0.162E-02 dE for cont linesearch -0.745E-07
 trial: gam= 0.64984 g(F)=  0.412E-04 g(S)=  0.189E-02 ort = 0.171E-04 (trialstep = 0.131E+01)
 search vector abs. value=  0.335E-02
 bond charge predicted
       N       E                     dE             d eps       ncg     rms          rms(c)
DAV:   1    -0.178744128247E+02   -0.23949E-01   -0.51357E-01  9168   0.669E+00    0.135E+00
DAV:   2    -0.179305385265E+02   -0.56126E-01   -0.63740E-01  9480   0.887E+00    0.319E+00
DAV:   3    -0.178556321265E+02    0.74906E-01   -0.46188E-01  9272   0.694E+00    0.483E-01
DAV:   4    -0.178526599338E+02    0.29722E-02   -0.11824E-02  9464   0.106E+00    0.518E-02
DAV:   5    -0.178526512591E+02    0.86747E-05   -0.38859E-04  9304   0.204E-01    0.239E-02
DAV:   6    -0.178526435164E+02    0.77427E-05   -0.36937E-05 11072   0.769E-02    0.962E-03
DAV:   7    -0.178526439323E+02   -0.41587E-06   -0.32867E-06  9272   0.153E-02    0.323E-03
DAV:   8    -0.178526441448E+02   -0.21252E-06   -0.25126E-07 10264   0.693E-03    0.495E-04
DAV:   9    -0.178526441633E+02   -0.18464E-07   -0.13210E-08  5088   0.161E-03    0.164E-04
DAV:  10    -0.178526441724E+02   -0.91268E-08   -0.28308E-09  4640   0.499E-04
  12 F= -.17852644E+02 E0= -.17852502E+02  d E =-.218035E-02  mag=    -0.0000
 trial-energy change:   -0.002180  1 .order   -0.002101   -0.002547   -0.001655
 step:   2.5162(harm=  3.7464)  dis= 0.00518  next Energy=   -17.853464 (dE=-0.300E-02)
 bond charge predicted
       N       E                     dE             d eps       ncg     rms          rms(c)
DAV:   1    -0.178716824503E+02   -0.19038E-01   -0.42584E-01  9184   0.606E+00    0.124E+00
DAV:   2    -0.179196741058E+02   -0.47992E-01   -0.53503E-01  9504   0.809E+00    0.292E+00
DAV:   3    -0.178558297625E+02    0.63844E-01   -0.38552E-01  9256   0.635E+00    0.438E-01
DAV:   4    -0.178533555371E+02    0.24742E-02   -0.99208E-03  9520   0.966E-01    0.491E-02
DAV:   5    -0.178533465846E+02    0.89525E-05   -0.33585E-04  9256   0.194E-01    0.217E-02
DAV:   6    -0.178533394098E+02    0.71748E-05   -0.30340E-05 11384   0.684E-02    0.839E-03
DAV:   7    -0.178533397526E+02   -0.34274E-06   -0.24384E-06  9176   0.128E-02    0.288E-03
DAV:   8    -0.178533399126E+02   -0.15999E-06   -0.20354E-07 10008   0.656E-03    0.442E-04
DAV:   9    -0.178533399295E+02   -0.16900E-07   -0.10729E-08  5008   0.149E-03    0.143E-04
DAV:  10    -0.178533399371E+02   -0.75893E-08   -0.23048E-09  4744   0.475E-04
  13 F= -.17853340E+02 E0= -.17853292E+02  d E =-.287611E-02  mag=     0.0000
 curvature:  -2.41 expect dE=-0.401E-02 dE for cont linesearch -0.485E-05
 trial: gam= 0.83935 g(F)=  0.976E-03 g(S)=  0.688E-03 ort =-0.822E-04 (trialstep = 0.134E+01)
 search vector abs. value=  0.389E-02
 bond charge predicted
       N       E                     dE             d eps       ncg     rms          rms(c)
DAV:   1    -0.178811657495E+02   -0.27826E-01   -0.60218E-01  9160   0.729E+00    0.157E+00
DAV:   2    -0.179469262350E+02   -0.65760E-01   -0.79300E-01  9224   0.979E+00    0.311E+00
DAV:   3    -0.178573068501E+02    0.89619E-01   -0.43541E-01  9152   0.794E+00    0.452E-01
DAV:   4    -0.178548460789E+02    0.24608E-02   -0.11777E-02  9720   0.882E-01    0.145E-01
DAV:   5    -0.178547142253E+02    0.13185E-03   -0.15359E-03  9392   0.440E-01    0.410E-02
DAV:   6    -0.178547023608E+02    0.11865E-04   -0.13505E-04  9344   0.131E-01    0.150E-02
DAV:   7    -0.178547022446E+02    0.11617E-06   -0.11590E-05 10992   0.344E-02    0.374E-03
DAV:   8    -0.178547022245E+02    0.20162E-07   -0.45441E-07 10832   0.585E-03    0.130E-03
DAV:   9    -0.178547021869E+02    0.37553E-07   -0.95436E-08  9472   0.292E-03    0.433E-04
DAV:  10    -0.178547021858E+02    0.11473E-08   -0.12651E-08  4680   0.140E-03
  14 F= -.17854702E+02 E0= -.17854573E+02  d E =-.136225E-02  mag=    -0.0000
 trial-energy change:   -0.001362  1 .order   -0.001375   -0.002136   -0.000614
 step:   1.9217(harm=  1.8790)  dis= 0.00663  next Energy=   -17.854835 (dE=-0.149E-02)
 bond charge predicted
       N       E                     dE             d eps       ncg     rms          rms(c)
DAV:   1    -0.178597488514E+02   -0.50467E-02   -0.11486E-01  9136   0.321E+00    0.675E-01
DAV:   2    -0.178716671018E+02   -0.11918E-01   -0.13902E-01  9272   0.417E+00    0.138E+00
DAV:   3    -0.178553190082E+02    0.16348E-01   -0.85380E-02  9184   0.335E+00    0.210E-01
DAV:   4    -0.178547938895E+02    0.52512E-03   -0.21635E-03  9896   0.413E-01    0.477E-02
DAV:   5    -0.178547806976E+02    0.13192E-04   -0.17486E-04  9280   0.156E-01    0.108E-02
DAV:   6    -0.178547800612E+02    0.63633E-06   -0.10907E-05  9152   0.396E-02    0.490E-03
DAV:   7    -0.178547801011E+02   -0.39848E-07   -0.99003E-07 11544   0.101E-02    0.123E-03
DAV:   8    -0.178547800654E+02    0.35653E-07   -0.82044E-08  8808   0.273E-03    0.443E-04
DAV:   9    -0.178547800644E+02    0.10032E-08   -0.90502E-09  4776   0.112E-03
  15 F= -.17854780E+02 E0= -.17854640E+02  d E =-.144013E-02  mag=    -0.0000
 curvature:  -2.27 expect dE=-0.275E-02 dE for cont linesearch -0.302E-04
 trial: gam= 0.65725 g(F)=  0.486E-03 g(S)=  0.723E-03 ort =-0.227E-03 (trialstep = 0.146E+01)
 search vector abs. value=  0.259E-02
 bond charge predicted
       N       E                     dE             d eps       ncg     rms          rms(c)
DAV:   1    -0.178861748950E+02   -0.31395E-01   -0.39753E-01  9104   0.716E+00    0.190E+00
DAV:   2    -0.181031946707E+02   -0.21702E+00   -0.20165E+00  9456   0.154E+01    0.597E+00
DAV:   3    -0.178578695641E+02    0.24533E+00   -0.15411E+00  9264   0.120E+01    0.527E-01
DAV:   4    -0.178555575852E+02    0.23120E-02   -0.20522E-02  8896   0.121E+00    0.477E-02
DAV:   5    -0.178555339958E+02    0.23589E-04   -0.39608E-04  9520   0.157E-01    0.274E-02
DAV:   6    -0.178555278482E+02    0.61476E-05   -0.32653E-05 10896   0.636E-02    0.171E-02
DAV:   7    -0.178555270305E+02    0.81771E-06   -0.77670E-06 10272   0.269E-02    0.258E-03
DAV:   8    -0.178555271554E+02   -0.12499E-06   -0.26634E-07  8936   0.447E-03    0.573E-04
DAV:   9    -0.178555271901E+02   -0.34629E-07   -0.12407E-08  5560   0.120E-03    0.224E-04
DAV:  10    -0.178555272045E+02   -0.14426E-07   -0.27036E-09  4672   0.516E-04    0.767E-05
DAV:  11    -0.178555272110E+02   -0.65247E-08   -0.62860E-10  4548   0.211E-04
  16 F= -.17855527E+02 E0= -.17855353E+02  d E =-.747147E-03  mag=    -0.0000
 trial-energy change:   -0.000747  1 .order   -0.000758   -0.001541    0.000025
 step:   1.4310(harm=  1.4320)  dis= 0.00685  next Energy=   -17.855527 (dE=-0.747E-03)
 bond charge predicted
       N       E                     dE             d eps       ncg     rms          rms(c)
DAV:   1    -0.178555361822E+02   -0.89776E-05   -0.11116E-04  9100   0.119E-01    0.336E-02
DAV:   2    -0.178556040980E+02   -0.67916E-04   -0.62218E-04  9352   0.272E-01    0.971E-02
DAV:   3    -0.178555276220E+02    0.76476E-04   -0.38113E-04  9148   0.216E-01    0.587E-03
DAV:   4    -0.178555274614E+02    0.16055E-06   -0.45874E-06  8732   0.140E-02    0.190E-03
DAV:   5    -0.178555274495E+02    0.11898E-07   -0.11338E-07  9432   0.354E-03    0.600E-04
DAV:   6    -0.178555274483E+02    0.12278E-08   -0.94670E-09  4900   0.107E-03
  17 F= -.17855527E+02 E0= -.17855353E+02  d E =-.747384E-03  mag=     0.0000
 curvature:  -1.75 expect dE=-0.827E-03 dE for cont linesearch -0.125E-08
 trial: gam= 0.11144 g(F)=  0.170E-03 g(S)=  0.303E-03 ort = 0.136E-05 (trialstep = 0.145E+01)
 search vector abs. value=  0.506E-03
 bond charge predicted
       N       E                     dE             d eps       ncg     rms          rms(c)
DAV:   1    -0.178598362946E+02   -0.43088E-02   -0.62608E-02  9136   0.265E+00    0.683E-01
DAV:   2    -0.178829534361E+02   -0.23117E-01   -0.22854E-01  9376   0.529E+00    0.175E+00
DAV:   3    -0.178560444549E+02    0.26909E-01   -0.12764E-01  9152   0.415E+00    0.136E-01
DAV:   4    -0.178559022155E+02    0.14224E-03   -0.21129E-03  9064   0.355E-01    0.625E-02
DAV:   5    -0.178558784538E+02    0.23762E-04   -0.17938E-04 10032   0.148E-01    0.778E-03
DAV:   6    -0.178558781106E+02    0.34316E-06   -0.58776E-06  9384   0.244E-02    0.374E-03
DAV:   7    -0.178558781111E+02   -0.52614E-09   -0.35227E-07 11136   0.561E-03    0.117E-03
DAV:   8    -0.178558781012E+02    0.99317E-08   -0.33771E-08  7760   0.173E-03
  18 F= -.17855878E+02 E0= -.17855770E+02  d E =-.350653E-03  mag=    -0.0000
 trial-energy change:   -0.000351  1 .order   -0.000343   -0.000687    0.000002
 step:   1.4470(harm=  1.4467)  dis= 0.00237  next Energy=   -17.855878 (dE=-0.351E-03)
 bond charge predicted
       N       E                     dE             d eps       ncg     rms          rms(c)
DAV:   1    -0.178558781075E+02    0.36243E-08   -0.33033E-07  9096   0.593E-03    0.167E-03
DAV:   2    -0.178558782221E+02   -0.11464E-06   -0.13877E-06  9496   0.130E-02    0.456E-03
DAV:   3    -0.178558780748E+02    0.14735E-06   -0.86162E-07  9176   0.103E-02    0.372E-04
DAV:   4    -0.178558780695E+02    0.53165E-08   -0.11004E-08  5072   0.841E-04
  19 F= -.17855878E+02 E0= -.17855770E+02  d E =-.350621E-03  mag=     0.0000
 curvature:  -0.77 expect dE=-0.686E-04 dE for cont linesearch -0.980E-08
 trial: gam= 0.19009 g(F)=  0.137E-05 g(S)=  0.878E-04 ort = 0.254E-05 (trialstep = 0.145E+01)
 search vector abs. value=  0.108E-03
 bond charge predicted
       N       E                     dE             d eps       ncg     rms          rms(c)
DAV:   1    -0.178617030727E+02   -0.58250E-02   -0.56716E-02  9120   0.309E+00    0.893E-01
DAV:   2    -0.179110083788E+02   -0.49305E-01   -0.45071E-01  9416   0.736E+00    0.270E+00
DAV:   3    -0.178559628436E+02    0.55046E-01   -0.30833E-01  9160   0.569E+00    0.154E-01
DAV:   4    -0.178559099960E+02    0.52848E-04   -0.28781E-03  8712   0.380E-01    0.542E-02
DAV:   5    -0.178558897301E+02    0.20266E-04   -0.79218E-05 11024   0.867E-02    0.950E-03
DAV:   6    -0.178558888378E+02    0.89221E-06   -0.24287E-06  8680   0.170E-02    0.542E-03
DAV:   7    -0.178558887042E+02    0.13368E-06   -0.81783E-07 12084   0.763E-03    0.582E-04
DAV:   8    -0.178558887580E+02   -0.53860E-07   -0.33553E-08  8512   0.147E-03    0.346E-04
DAV:   9    -0.178558887683E+02   -0.10224E-07   -0.30719E-09  4800   0.564E-04    0.739E-05
DAV:  10    -0.178558887749E+02   -0.66352E-08   -0.58855E-10  4416   0.209E-04
  20 F= -.17855889E+02 E0= -.17855797E+02  d E =-.107054E-04  mag=    -0.0000
 trial-energy change:   -0.000011  1 .order   -0.000014   -0.000130    0.000101
 step:   0.7811(harm=  0.8141)  dis= 0.00031  next Energy=   -17.855913 (dE=-0.344E-04)
 bond charge predicted
       N       E                     dE             d eps       ncg     rms          rms(c)
DAV:   1    -0.178571662368E+02   -0.12775E-02   -0.12130E-02  9112   0.142E+00    0.422E-01
DAV:   2    -0.178677770254E+02   -0.10611E-01   -0.99836E-02  9408   0.348E+00    0.118E+00
DAV:   3    -0.178558980700E+02    0.11879E-01   -0.56663E-02  9136   0.272E+00    0.472E-02
DAV:   4    -0.178559196566E+02   -0.21587E-04   -0.65979E-04  8744   0.151E-01    0.352E-02
DAV:   5    -0.178559125666E+02    0.70901E-05   -0.38107E-05 10320   0.650E-02    0.441E-03
DAV:   6    -0.178559124298E+02    0.13673E-06   -0.84415E-07  9008   0.863E-03    0.136E-03
DAV:   7    -0.178559124055E+02    0.24302E-07   -0.10264E-07  9232   0.255E-03    0.366E-04
DAV:   8    -0.178559123871E+02    0.18459E-07   -0.69919E-09  4960   0.833E-04    0.184E-04
DAV:   9    -0.178559123754E+02    0.11727E-07   -0.18272E-09  4552   0.300E-04    0.682E-05
DAV:  10    -0.178559123734E+02    0.19854E-08   -0.40033E-10  4372   0.204E-04
  21 F= -.17855912E+02 E0= -.17855813E+02  d E =-.343039E-04  mag=     0.0000
 curvature:  -0.49 expect dE=-0.625E-05 dE for cont linesearch -0.402E-07
 trial: gam= 0.10976 g(F)=  0.709E-06 g(S)=  0.120E-04 ort = 0.298E-05 (trialstep = 0.132E+01)
 search vector abs. value=  0.147E-04
 bond charge predicted
       N       E                     dE             d eps       ncg     rms          rms(c)
DAV:   1    -0.178560268268E+02   -0.11445E-03   -0.22876E-03  9200   0.447E-01    0.975E-02
DAV:   2    -0.178563061050E+02   -0.27928E-03   -0.30956E-03  9536   0.602E-01    0.213E-01
DAV:   3    -0.178559367332E+02    0.36937E-03   -0.20403E-03  9216   0.503E-01    0.328E-02
DAV:   4    -0.178559254299E+02    0.11303E-04   -0.54733E-05  9816   0.623E-02    0.526E-03
DAV:   5    -0.178559251656E+02    0.26431E-06   -0.23511E-06  9200   0.190E-02    0.174E-03
DAV:   6    -0.178559251513E+02    0.14317E-07   -0.13518E-07  9032   0.353E-03    0.596E-04
DAV:   7    -0.178559251592E+02   -0.79258E-08   -0.10543E-08  4896   0.107E-03
  22 F= -.17855925E+02 E0= -.17855829E+02  d E =-.127858E-04  mag=     0.0000
 trial-energy change:   -0.000013  1 .order   -0.000012   -0.000017   -0.000008
 step:   2.1346(harm=  2.3981)  dis= 0.00034  next Energy=   -17.855928 (dE=-0.153E-04)
 bond charge predicted
       N       E                     dE             d eps       ncg     rms          rms(c)
DAV:   1    -0.178559677673E+02   -0.42616E-04   -0.88551E-04  9208   0.278E-01    0.606E-02
DAV:   2    -0.178560758204E+02   -0.10805E-03   -0.11955E-03  9540   0.374E-01    0.133E-01
DAV:   3    -0.178559329768E+02    0.14284E-03   -0.79051E-04  9216   0.312E-01    0.205E-02
DAV:   4    -0.178559285815E+02    0.43953E-05   -0.21277E-05  9804   0.390E-02    0.325E-03
DAV:   5    -0.178559284840E+02    0.97418E-07   -0.89841E-07  9184   0.117E-02    0.108E-03
DAV:   6    -0.178559284785E+02    0.55857E-08   -0.51622E-08  8644   0.218E-03
  23 F= -.17855928E+02 E0= -.17855836E+02  d E =-.161051E-04  mag=    -0.0000
 curvature:  -1.27 expect dE=-0.174E-05 dE for cont linesearch -0.299E-06
 trial: gam=-0.01233 g(F)=  0.337E-06 g(S)=  0.103E-05 ort = 0.186E-05 (trialstep = 0.148E+01)
 search vector abs. value=  0.132E-05
 reached required accuracy - stopping structural energy minimisation
 writing wavefunctions
