  10  10   0   0
  0.1184536E+02  0.7126877E-09  0.7126877E-09  0.6402704E-09  0.5000000E-15
  1.000000000000000E-004
  CAR 
 unknown system                          
     24.55110818    -58.59642933  301      8.74704506      1.00000000
    -58.596  0.0000E+00  0.0000E+00  0.0000E+00  0.0000E+00
    -58.319  0.0000E+00  0.0000E+00  0.0000E+00  0.0000E+00
    -58.042  0.0000E+00  0.0000E+00  0.0000E+00  0.0000E+00
    -57.765  0.0000E+00  0.0000E+00  0.0000E+00  0.0000E+00
    -57.488  0.0000E+00  0.0000E+00  0.0000E+00  0.0000E+00
    -57.211  0.0000E+00  0.0000E+00  0.0000E+00  0.0000E+00
    -56.933  0.0000E+00  0.0000E+00  0.0000E+00  0.0000E+00
    -56.656  0.0000E+00  0.0000E+00  0.0000E+00  0.0000E+00
    -56.379  0.0000E+00  0.0000E+00  0.0000E+00  0.0000E+00
    -56.102  0.0000E+00  0.0000E+00  0.0000E+00  0.0000E+00
    -55.825  0.0000E+00  0.0000E+00  0.0000E+00  0.0000E+00
    -55.548  0.0000E+00  0.0000E+00  0.0000E+00  0.0000E+00
    -55.271  0.0000E+00  0.0000E+00  0.0000E+00  0.0000E+00
    -54.993  0.0000E+00  0.0000E+00  0.0000E+00  0.0000E+00
    -54.716  0.1070E+03  0.1070E+03  0.5624E+01  0.5624E+01
    -54.439  0.0000E+00  0.0000E+00  0.1700E+02  0.1700E+02
    -54.162  0.0000E+00  0.0000E+00  0.1800E+02  0.1800E+02
    -53.885  0.0000E+00  0.0000E+00  0.1800E+02  0.1800E+02
    -53.608  0.0000E+00  0.0000E+00  0.1800E+02  0.1800E+02
    -53.330  0.0000E+00  0.0000E+00  0.1800E+02  0.1800E+02
    -53.053  0.0000E+00  0.0000E+00  0.1800E+02  0.1800E+02
    -52.776  0.0000E+00  0.0000E+00  0.1800E+02  0.1800E+02
    -52.499  0.0000E+00  0.0000E+00  0.1800E+02  0.1800E+02
    -52.222  0.0000E+00  0.0000E+00  0.1800E+02  0.1800E+02
    -51.945  0.0000E+00  0.0000E+00  0.1800E+02  0.1800E+02
    -51.667  0.0000E+00  0.0000E+00  0.1800E+02  0.1800E+02
    -51.390  0.0000E+00  0.0000E+00  0.1800E+02  0.1800E+02
    -51.113  0.0000E+00  0.0000E+00  0.1800E+02  0.1800E+02
    -50.836  0.0000E+00  0.0000E+00  0.1800E+02  0.1800E+02
    -50.559  0.0000E+00  0.0000E+00  0.1800E+02  0.1800E+02
    -50.282  0.0000E+00  0.0000E+00  0.1800E+02  0.1800E+02
    -50.005  0.0000E+00  0.0000E+00  0.1800E+02  0.1800E+02
    -49.727  0.0000E+00  0.0000E+00  0.1800E+02  0.1800E+02
    -49.450  0.0000E+00  0.0000E+00  0.1800E+02  0.1800E+02
    -49.173  0.0000E+00  0.0000E+00  0.1800E+02  0.1800E+02
    -48.896  0.0000E+00  0.0000E+00  0.1800E+02  0.1800E+02
    -48.619  0.0000E+00  0.0000E+00  0.1800E+02  0.1800E+02
    -48.342  0.0000E+00  0.0000E+00  0.1800E+02  0.1800E+02
    -48.064  0.0000E+00  0.0000E+00  0.1800E+02  0.1800E+02
    -47.787  0.0000E+00  0.0000E+00  0.1800E+02  0.1800E+02
    -47.510  0.0000E+00  0.0000E+00  0.1800E+02  0.1800E+02
    -47.233  0.0000E+00  0.0000E+00  0.1800E+02  0.1800E+02
    -46.956  0.0000E+00  0.0000E+00  0.1800E+02  0.1800E+02
    -46.679  0.0000E+00  0.0000E+00  0.1800E+02  0.1800E+02
    -46.401  0.0000E+00  0.0000E+00  0.1800E+02  0.1800E+02
    -46.124  0.0000E+00  0.0000E+00  0.1800E+02  0.1800E+02
    -45.847  0.0000E+00  0.0000E+00  0.1800E+02  0.1800E+02
    -45.570  0.0000E+00  0.0000E+00  0.1800E+02  0.1800E+02
    -45.293  0.0000E+00  0.0000E+00  0.1800E+02  0.1800E+02
    -45.016  0.0000E+00  0.0000E+00  0.1800E+02  0.1800E+02
    -44.739  0.0000E+00  0.0000E+00  0.1800E+02  0.1800E+02
    -44.461  0.0000E+00  0.0000E+00  0.1800E+02  0.1800E+02
    -44.184  0.0000E+00  0.0000E+00  0.1800E+02  0.1800E+02
    -43.907  0.0000E+00  0.0000E+00  0.1800E+02  0.1800E+02
    -43.630  0.0000E+00  0.0000E+00  0.1800E+02  0.1800E+02
    -43.353  0.0000E+00  0.0000E+00  0.1800E+02  0.1800E+02
    -43.076  0.0000E+00  0.0000E+00  0.1800E+02  0.1800E+02
    -42.798  0.0000E+00  0.0000E+00  0.1800E+02  0.1800E+02
    -42.521  0.0000E+00  0.0000E+00  0.1800E+02  0.1800E+02
    -42.244  0.0000E+00  0.0000E+00  0.1800E+02  0.1800E+02
    -41.967  0.0000E+00  0.0000E+00  0.1800E+02  0.1800E+02
    -41.690  0.0000E+00  0.0000E+00  0.1800E+02  0.1800E+02
    -41.413  0.0000E+00  0.0000E+00  0.1800E+02  0.1800E+02
    -41.135  0.0000E+00  0.0000E+00  0.1800E+02  0.1800E+02
    -40.858  0.0000E+00  0.0000E+00  0.1800E+02  0.1800E+02
    -40.581  0.0000E+00  0.0000E+00  0.1800E+02  0.1800E+02
    -40.304  0.0000E+00  0.0000E+00  0.1800E+02  0.1800E+02
    -40.027  0.0000E+00  0.0000E+00  0.1800E+02  0.1800E+02
    -39.750  0.0000E+00  0.0000E+00  0.1800E+02  0.1800E+02
    -39.472  0.0000E+00  0.0000E+00  0.1800E+02  0.1800E+02
    -39.195  0.0000E+00  0.0000E+00  0.1800E+02  0.1800E+02
    -38.918  0.0000E+00  0.0000E+00  0.1800E+02  0.1800E+02
    -38.641  0.0000E+00  0.0000E+00  0.1800E+02  0.1800E+02
    -38.364  0.0000E+00  0.0000E+00  0.1800E+02  0.1800E+02
    -38.087  0.0000E+00  0.0000E+00  0.1800E+02  0.1800E+02
    -37.810  0.0000E+00  0.0000E+00  0.1800E+02  0.1800E+02
    -37.532  0.0000E+00  0.0000E+00  0.1800E+02  0.1800E+02
    -37.255  0.0000E+00  0.0000E+00  0.1800E+02  0.1800E+02
    -36.978  0.0000E+00  0.0000E+00  0.1800E+02  0.1800E+02
    -36.701  0.0000E+00  0.0000E+00  0.1800E+02  0.1800E+02
    -36.424  0.0000E+00  0.0000E+00  0.1800E+02  0.1800E+02
    -36.147  0.0000E+00  0.0000E+00  0.1800E+02  0.1800E+02
    -35.869  0.0000E+00  0.0000E+00  0.1800E+02  0.1800E+02
    -35.592  0.0000E+00  0.0000E+00  0.1800E+02  0.1800E+02
    -35.315  0.0000E+00  0.0000E+00  0.1800E+02  0.1800E+02
    -35.038  0.0000E+00  0.0000E+00  0.1800E+02  0.1800E+02
    -34.761  0.0000E+00  0.0000E+00  0.1800E+02  0.1800E+02
    -34.484  0.0000E+00  0.0000E+00  0.1800E+02  0.1800E+02
    -34.206  0.0000E+00  0.0000E+00  0.1800E+02  0.1800E+02
    -33.929  0.0000E+00  0.0000E+00  0.1800E+02  0.1800E+02
    -33.652  0.0000E+00  0.0000E+00  0.1800E+02  0.1800E+02
    -33.375  0.0000E+00  0.0000E+00  0.1800E+02  0.1800E+02
    -33.098  0.0000E+00  0.0000E+00  0.1800E+02  0.1800E+02
    -32.821  0.0000E+00  0.0000E+00  0.1800E+02  0.1800E+02
    -32.544  0.0000E+00  0.0000E+00  0.1800E+02  0.1800E+02
    -32.266  0.0000E+00  0.0000E+00  0.1800E+02  0.1800E+02
    -31.989  0.0000E+00  0.0000E+00  0.1800E+02  0.1800E+02
    -31.712  0.0000E+00  0.0000E+00  0.1800E+02  0.1800E+02
    -31.435  0.0000E+00  0.0000E+00  0.1800E+02  0.1800E+02
    -31.158  0.0000E+00  0.0000E+00  0.1800E+02  0.1800E+02
    -30.881  0.0000E+00  0.0000E+00  0.1800E+02  0.1800E+02
    -30.603  0.0000E+00  0.0000E+00  0.1800E+02  0.1800E+02
    -30.326  0.0000E+00  0.0000E+00  0.1800E+02  0.1800E+02
    -30.049  0.0000E+00  0.0000E+00  0.1800E+02  0.1800E+02
    -29.772  0.0000E+00  0.0000E+00  0.1800E+02  0.1800E+02
    -29.495  0.0000E+00  0.0000E+00  0.1800E+02  0.1800E+02
    -29.218  0.0000E+00  0.0000E+00  0.1800E+02  0.1800E+02
    -28.940  0.0000E+00  0.0000E+00  0.1800E+02  0.1800E+02
    -28.663  0.0000E+00  0.0000E+00  0.1800E+02  0.1800E+02
    -28.386  0.0000E+00  0.0000E+00  0.1800E+02  0.1800E+02
    -28.109  0.0000E+00  0.0000E+00  0.1800E+02  0.1800E+02
    -27.832  0.0000E+00  0.0000E+00  0.1800E+02  0.1800E+02
    -27.555  0.0000E+00  0.0000E+00  0.1800E+02  0.1800E+02
    -27.278  0.0000E+00  0.0000E+00  0.1800E+02  0.1800E+02
    -27.000  0.0000E+00  0.0000E+00  0.1800E+02  0.1800E+02
    -26.723  0.0000E+00  0.0000E+00  0.1800E+02  0.1800E+02
    -26.446  0.0000E+00  0.0000E+00  0.1800E+02  0.1800E+02
    -26.169  0.0000E+00  0.0000E+00  0.1800E+02  0.1800E+02
    -25.892  0.0000E+00  0.0000E+00  0.1800E+02  0.1800E+02
    -25.615  0.0000E+00  0.0000E+00  0.1800E+02  0.1800E+02
    -25.337  0.0000E+00  0.0000E+00  0.1800E+02  0.1800E+02
    -25.060  0.0000E+00  0.0000E+00  0.1800E+02  0.1800E+02
    -24.783  0.0000E+00  0.0000E+00  0.1800E+02  0.1800E+02
    -24.506  0.0000E+00  0.0000E+00  0.1800E+02  0.1800E+02
    -24.229  0.0000E+00  0.0000E+00  0.1800E+02  0.1800E+02
    -23.952  0.0000E+00  0.0000E+00  0.1800E+02  0.1800E+02
    -23.674  0.0000E+00  0.0000E+00  0.1800E+02  0.1800E+02
    -23.397  0.0000E+00  0.0000E+00  0.1800E+02  0.1800E+02
    -23.120  0.0000E+00  0.0000E+00  0.1800E+02  0.1800E+02
    -22.843  0.0000E+00  0.0000E+00  0.1800E+02  0.1800E+02
    -22.566  0.0000E+00  0.0000E+00  0.1800E+02  0.1800E+02
    -22.289  0.0000E+00  0.0000E+00  0.1800E+02  0.1800E+02
    -22.012  0.0000E+00  0.0000E+00  0.1800E+02  0.1800E+02
    -21.734  0.0000E+00  0.0000E+00  0.1800E+02  0.1800E+02
    -21.457  0.0000E+00  0.0000E+00  0.1800E+02  0.1800E+02
    -21.180  0.0000E+00  0.0000E+00  0.1800E+02  0.1800E+02
    -20.903  0.0000E+00  0.0000E+00  0.1800E+02  0.1800E+02
    -20.626  0.0000E+00  0.0000E+00  0.1800E+02  0.1800E+02
    -20.349  0.0000E+00  0.0000E+00  0.1800E+02  0.1800E+02
    -20.071  0.0000E+00  0.0000E+00  0.1800E+02  0.1800E+02
    -19.794  0.0000E+00  0.0000E+00  0.1800E+02  0.1800E+02
    -19.517  0.0000E+00  0.0000E+00  0.1800E+02  0.1800E+02
    -19.240  0.0000E+00  0.0000E+00  0.1800E+02  0.1800E+02
    -18.963  0.0000E+00  0.0000E+00  0.1800E+02  0.1800E+02
    -18.686  0.0000E+00  0.0000E+00  0.1800E+02  0.1800E+02
    -18.408  0.0000E+00  0.0000E+00  0.1800E+02  0.1800E+02
    -18.131  0.0000E+00  0.0000E+00  0.1800E+02  0.1800E+02
    -17.854  0.0000E+00  0.0000E+00  0.1800E+02  0.1800E+02
    -17.577  0.0000E+00  0.0000E+00  0.1800E+02  0.1800E+02
    -17.300  0.0000E+00  0.0000E+00  0.1800E+02  0.1800E+02
    -17.023  0.0000E+00  0.0000E+00  0.1800E+02  0.1800E+02
    -16.746  0.0000E+00  0.0000E+00  0.1800E+02  0.1800E+02
    -16.468  0.0000E+00  0.0000E+00  0.1800E+02  0.1800E+02
    -16.191  0.0000E+00  0.0000E+00  0.1800E+02  0.1800E+02
    -15.914  0.0000E+00  0.0000E+00  0.1800E+02  0.1800E+02
    -15.637  0.0000E+00  0.0000E+00  0.1800E+02  0.1800E+02
    -15.360  0.0000E+00  0.0000E+00  0.1800E+02  0.1800E+02
    -15.083  0.0000E+00  0.0000E+00  0.1800E+02  0.1800E+02
    -14.805  0.0000E+00  0.0000E+00  0.1800E+02  0.1800E+02
    -14.528  0.0000E+00  0.0000E+00  0.1800E+02  0.1800E+02
    -14.251  0.0000E+00  0.0000E+00  0.1800E+02  0.1800E+02
    -13.974  0.0000E+00  0.0000E+00  0.1800E+02  0.1800E+02
    -13.697  0.0000E+00  0.0000E+00  0.1800E+02  0.1800E+02
    -13.420  0.0000E+00  0.0000E+00  0.1800E+02  0.1800E+02
    -13.142  0.0000E+00  0.0000E+00  0.1800E+02  0.1800E+02
    -12.865  0.0000E+00  0.0000E+00  0.1800E+02  0.1800E+02
    -12.588  0.0000E+00  0.0000E+00  0.1800E+02  0.1800E+02
    -12.311  0.0000E+00  0.0000E+00  0.1800E+02  0.1800E+02
    -12.034  0.0000E+00  0.0000E+00  0.1800E+02  0.1800E+02
    -11.757  0.0000E+00  0.0000E+00  0.1800E+02  0.1800E+02
    -11.479  0.0000E+00  0.0000E+00  0.1800E+02  0.1800E+02
    -11.202  0.0000E+00  0.0000E+00  0.1800E+02  0.1800E+02
    -10.925  0.0000E+00  0.0000E+00  0.1800E+02  0.1800E+02
    -10.648  0.0000E+00  0.0000E+00  0.1800E+02  0.1800E+02
    -10.371  0.0000E+00  0.0000E+00  0.1800E+02  0.1800E+02
    -10.094  0.0000E+00  0.0000E+00  0.1800E+02  0.1800E+02
     -9.817  0.0000E+00  0.0000E+00  0.1800E+02  0.1800E+02
     -9.539  0.0000E+00  0.0000E+00  0.1800E+02  0.1800E+02
     -9.262  0.0000E+00  0.0000E+00  0.1800E+02  0.1800E+02
     -8.985  0.0000E+00  0.0000E+00  0.1800E+02  0.1800E+02
     -8.708  0.0000E+00  0.0000E+00  0.1800E+02  0.1800E+02
     -8.431  0.0000E+00  0.0000E+00  0.1800E+02  0.1800E+02
     -8.154  0.0000E+00  0.0000E+00  0.1800E+02  0.1800E+02
     -7.876  0.0000E+00  0.0000E+00  0.1800E+02  0.1800E+02
     -7.599  0.0000E+00  0.0000E+00  0.1800E+02  0.1800E+02
     -7.322  0.0000E+00  0.0000E+00  0.1800E+02  0.1800E+02
     -7.045  0.0000E+00  0.0000E+00  0.1800E+02  0.1800E+02
     -6.768  0.0000E+00  0.0000E+00  0.1800E+02  0.1800E+02
     -6.491  0.0000E+00  0.0000E+00  0.1800E+02  0.1800E+02
     -6.213  0.0000E+00  0.0000E+00  0.1800E+02  0.1800E+02
     -5.936  0.0000E+00  0.0000E+00  0.1800E+02  0.1800E+02
     -5.659  0.0000E+00  0.0000E+00  0.1800E+02  0.1800E+02
     -5.382  0.0000E+00  0.0000E+00  0.1800E+02  0.1800E+02
     -5.105  0.0000E+00  0.0000E+00  0.1800E+02  0.1800E+02
     -4.828  0.0000E+00  0.0000E+00  0.1800E+02  0.1800E+02
     -4.551  0.0000E+00  0.0000E+00  0.1800E+02  0.1800E+02
     -4.273  0.0000E+00  0.0000E+00  0.1800E+02  0.1800E+02
     -3.996  0.0000E+00  0.0000E+00  0.1800E+02  0.1800E+02
     -3.719  0.0000E+00  0.0000E+00  0.1800E+02  0.1800E+02
     -3.442  0.0000E+00  0.0000E+00  0.1800E+02  0.1800E+02
     -3.165  0.0000E+00  0.0000E+00  0.1800E+02  0.1800E+02
     -2.888  0.0000E+00  0.0000E+00  0.1800E+02  0.1800E+02
     -2.610  0.0000E+00  0.0000E+00  0.1800E+02  0.1800E+02
     -2.333  0.0000E+00  0.0000E+00  0.1800E+02  0.1800E+02
     -2.056  0.0000E+00  0.0000E+00  0.1800E+02  0.1800E+02
     -1.779  0.2262E-01  0.2262E-01  0.1800E+02  0.1800E+02
     -1.502  0.1616E+00  0.1616E+00  0.1803E+02  0.1803E+02
     -1.225  0.3274E+00  0.3274E+00  0.1809E+02  0.1809E+02
     -0.947  0.4598E+00  0.4598E+00  0.1821E+02  0.1821E+02
     -0.670  0.4535E+00  0.4535E+00  0.1833E+02  0.1833E+02
     -0.393  0.4805E+00  0.4805E+00  0.1846E+02  0.1846E+02
     -0.116  0.5034E+00  0.5034E+00  0.1859E+02  0.1859E+02
      0.161  0.5662E+00  0.5662E+00  0.1874E+02  0.1874E+02
      0.438  0.5963E+00  0.5963E+00  0.1890E+02  0.1890E+02
      0.715  0.7127E+00  0.7127E+00  0.1909E+02  0.1909E+02
      0.993  0.8512E+00  0.8512E+00  0.1930E+02  0.1930E+02
      1.270  0.8846E+00  0.8846E+00  0.1954E+02  0.1954E+02
      1.547  0.1249E+01  0.1249E+01  0.1984E+02  0.1984E+02
      1.824  0.1184E+01  0.1184E+01  0.2018E+02  0.2018E+02
      2.101  0.8917E+00  0.8917E+00  0.2046E+02  0.2046E+02
      2.378  0.1161E+01  0.1161E+01  0.2073E+02  0.2073E+02
      2.656  0.1302E+01  0.1302E+01  0.2110E+02  0.2110E+02
      2.933  0.9366E+00  0.9366E+00  0.2139E+02  0.2139E+02
      3.210  0.1216E+01  0.1216E+01  0.2173E+02  0.2173E+02
      3.487  0.1272E+01  0.1272E+01  0.2206E+02  0.2206E+02
      3.764  0.1578E+01  0.1578E+01  0.2243E+02  0.2243E+02
      4.041  0.1873E+01  0.1873E+01  0.2294E+02  0.2294E+02
      4.319  0.1688E+01  0.1688E+01  0.2337E+02  0.2337E+02
      4.596  0.2424E+01  0.2424E+01  0.2409E+02  0.2409E+02
      4.873  0.3992E+01  0.3992E+01  0.2500E+02  0.2500E+02
      5.150  0.2618E+01  0.2618E+01  0.2584E+02  0.2584E+02
      5.427  0.4651E+01  0.4651E+01  0.2695E+02  0.2695E+02
      5.704  0.7147E+01  0.7147E+01  0.2868E+02  0.2868E+02
      5.981  0.7308E+01  0.7308E+01  0.3050E+02  0.3050E+02
      6.259  0.8804E+01  0.8804E+01  0.3360E+02  0.3360E+02
      6.536  0.9849E+01  0.9849E+01  0.3599E+02  0.3599E+02
      6.813  0.9388E+01  0.9388E+01  0.3896E+02  0.3896E+02
      7.090  0.1053E+02  0.1053E+02  0.4166E+02  0.4166E+02
      7.367  0.9137E+01  0.9137E+01  0.4455E+02  0.4455E+02
      7.644  0.9043E+01  0.9043E+01  0.4748E+02  0.4748E+02
      7.922  0.1253E+02  0.1253E+02  0.4950E+02  0.4950E+02
      8.199  0.5618E+01  0.5618E+01  0.5185E+02  0.5185E+02
      8.476  0.3046E+01  0.3046E+01  0.5315E+02  0.5315E+02
      8.753  0.2860E+01  0.2860E+01  0.5402E+02  0.5402E+02
      9.030  0.1938E+01  0.1938E+01  0.5471E+02  0.5471E+02
      9.307  0.1897E+01  0.1897E+01  0.5536E+02  0.5536E+02
      9.585  0.1740E+01  0.1740E+01  0.5581E+02  0.5581E+02
      9.862  0.7490E+00  0.7490E+00  0.5619E+02  0.5619E+02
     10.139  0.1122E+01  0.1122E+01  0.5646E+02  0.5646E+02
     10.416  0.1168E+01  0.1168E+01  0.5677E+02  0.5677E+02
     10.693  0.1438E+01  0.1438E+01  0.5713E+02  0.5713E+02
     10.970  0.1163E+01  0.1163E+01  0.5751E+02  0.5751E+02
     11.248  0.8146E+00  0.8146E+00  0.5777E+02  0.5777E+02
     11.525  0.1565E+01  0.1565E+01  0.5810E+02  0.5810E+02
     11.802  0.2069E+01  0.2069E+01  0.5866E+02  0.5866E+02
     12.079  0.1781E+01  0.1781E+01  0.5917E+02  0.5917E+02
     12.356  0.1638E+01  0.1638E+01  0.5964E+02  0.5964E+02
     12.633  0.1505E+01  0.1505E+01  0.6006E+02  0.6006E+02
     12.910  0.2089E+01  0.2089E+01  0.6060E+02  0.6060E+02
     13.188  0.1631E+01  0.1631E+01  0.6108E+02  0.6108E+02
     13.465  0.1492E+01  0.1492E+01  0.6160E+02  0.6160E+02
     13.742  0.1705E+01  0.1705E+01  0.6204E+02  0.6204E+02
     14.019  0.1844E+01  0.1844E+01  0.6256E+02  0.6256E+02
     14.296  0.1754E+01  0.1754E+01  0.6305E+02  0.6305E+02
     14.573  0.2016E+01  0.2016E+01  0.6356E+02  0.6356E+02
     14.851  0.2045E+01  0.2045E+01  0.6416E+02  0.6416E+02
     15.128  0.1830E+01  0.1830E+01  0.6469E+02  0.6469E+02
     15.405  0.1676E+01  0.1676E+01  0.6517E+02  0.6517E+02
     15.682  0.1584E+01  0.1584E+01  0.6562E+02  0.6562E+02
     15.959  0.1797E+01  0.1797E+01  0.6610E+02  0.6610E+02
     16.236  0.1842E+01  0.1842E+01  0.6659E+02  0.6659E+02
     16.514  0.1734E+01  0.1734E+01  0.6711E+02  0.6711E+02
     16.791  0.1850E+01  0.1850E+01  0.6761E+02  0.6761E+02
     17.068  0.1821E+01  0.1821E+01  0.6812E+02  0.6812E+02
     17.345  0.2058E+01  0.2058E+01  0.6866E+02  0.6866E+02
     17.622  0.1943E+01  0.1943E+01  0.6921E+02  0.6921E+02
     17.899  0.1842E+01  0.1842E+01  0.6973E+02  0.6973E+02
     18.176  0.1479E+01  0.1479E+01  0.7018E+02  0.7018E+02
     18.454  0.1271E+01  0.1271E+01  0.7056E+02  0.7056E+02
     18.731  0.1093E+01  0.1093E+01  0.7088E+02  0.7088E+02
     19.008  0.9175E+00  0.9175E+00  0.7116E+02  0.7116E+02
     19.285  0.7975E+00  0.7975E+00  0.7140E+02  0.7140E+02
     19.562  0.6757E+00  0.6757E+00  0.7161E+02  0.7161E+02
     19.839  0.5292E+00  0.5292E+00  0.7177E+02  0.7177E+02
     20.117  0.3712E+00  0.3712E+00  0.7190E+02  0.7190E+02
     20.394  0.1894E+00  0.1894E+00  0.7197E+02  0.7197E+02
     20.671  0.1276E-01  0.1276E-01  0.7200E+02  0.7200E+02
     20.948  0.0000E+00  0.0000E+00  0.7200E+02  0.7200E+02
     21.225  0.0000E+00  0.0000E+00  0.7200E+02  0.7200E+02
     21.502  0.0000E+00  0.0000E+00  0.7200E+02  0.7200E+02
     21.780  0.0000E+00  0.0000E+00  0.7200E+02  0.7200E+02
     22.057  0.0000E+00  0.0000E+00  0.7200E+02  0.7200E+02
     22.334  0.0000E+00  0.0000E+00  0.7200E+02  0.7200E+02
     22.611  0.0000E+00  0.0000E+00  0.7200E+02  0.7200E+02
     22.888  0.0000E+00  0.0000E+00  0.7200E+02  0.7200E+02
     23.165  0.0000E+00  0.0000E+00  0.7200E+02  0.7200E+02
     23.442  0.0000E+00  0.0000E+00  0.7200E+02  0.7200E+02
     23.720  0.0000E+00  0.0000E+00  0.7200E+02  0.7200E+02
     23.997  0.0000E+00  0.0000E+00  0.7200E+02  0.7200E+02
     24.274  0.0000E+00  0.0000E+00  0.7200E+02  0.7200E+02
     24.551  0.0000E+00  0.0000E+00  0.7200E+02  0.7200E+02
