 running on   24 total cores
 distrk:  each k-point on   24 cores,    1 groups
 distr:  one band on    6 cores,    4 groups
 using from now: INCAR     
 vasp.5.4.4.18Apr17-6-g9f103f2a35 (build Jan 03 2018 06:08:52) complex          
  
 POSCAR found :  2 types and      10 ions
 scaLAPACK will be used
 WARNING: for PREC=h ENMAX is automatically increase by 25 %
        this was not the case for versions prior to vasp.4.4
 WARNING: for PREC=h ENMAX is automatically increase by 25 %
        this was not the case for versions prior to vasp.4.4
 LDA part: xc-table for Pade appr. of Perdew
 POSCAR, INCAR and KPOINTS ok, starting setup
 FFT: planning ...
 WAVECAR not read
 entering main loop
       N       E                     dE             d eps       ncg     rms          rms(c)
DAV:   1     0.137372995843E+04    0.13737E+04   -0.62778E+04 11376   0.178E+03
DAV:   2     0.465178310274E+02   -0.13272E+04   -0.12680E+04  9616   0.576E+02
DAV:   3    -0.577706410699E+02   -0.10429E+03   -0.94503E+02 10672   0.180E+02
DAV:   4    -0.615592255788E+02   -0.37886E+01   -0.37572E+01 10704   0.334E+01
DAV:   5    -0.616478878683E+02   -0.88662E-01   -0.88647E-01 10960   0.504E+00    0.323E+01
DAV:   6    -0.775934758542E+02   -0.15946E+02   -0.17283E+02 10944   0.132E+02    0.426E+01
DAV:   7    -0.527820047033E+02    0.24811E+02   -0.62611E+01 10984   0.864E+01    0.789E+00
DAV:   8    -0.533067282631E+02   -0.52472E+00   -0.72553E+00 11944   0.289E+01    0.971E+00
DAV:   9    -0.530319689861E+02    0.27476E+00   -0.40154E+00 11120   0.238E+01    0.513E+00
DAV:  10    -0.529887506542E+02    0.43218E-01   -0.15545E+00 11416   0.120E+01    0.444E+00
DAV:  11    -0.528658466690E+02    0.12290E+00   -0.37099E-01 11192   0.893E+00    0.741E-01
DAV:  12    -0.528718515966E+02   -0.60049E-02   -0.50766E-02 10600   0.151E+00    0.741E-01
DAV:  13    -0.528681969466E+02    0.36546E-02   -0.15096E-02 11696   0.131E+00    0.125E-01
DAV:  14    -0.528684246779E+02   -0.22773E-03   -0.20302E-03 10824   0.290E-01    0.132E-01
DAV:  15    -0.528683126299E+02    0.11205E-03   -0.37370E-04 11648   0.179E-01    0.301E-02
DAV:  16    -0.528683154405E+02   -0.28106E-05   -0.45470E-05 12424   0.467E-02    0.891E-03
DAV:  17    -0.528683149460E+02    0.49447E-06   -0.40062E-06 10576   0.160E-02    0.523E-03
DAV:  18    -0.528683144199E+02    0.52612E-06   -0.98353E-07 12024   0.112E-02    0.314E-03
DAV:  19    -0.528683140775E+02    0.34239E-06   -0.22717E-07 10976   0.403E-03    0.116E-03
DAV:  20    -0.528683140238E+02    0.53704E-07   -0.35472E-08  6792   0.198E-03    0.262E-04
DAV:  21    -0.528683140248E+02   -0.94224E-09   -0.11151E-08  5888   0.749E-04
   1 F= -.52868314E+02 E0= -.52868369E+02  d E =-.528683E+02  mag=    -0.0000
 curvature:   0.00 expect dE= 0.000E+00 dE for cont linesearch  0.000E+00
 trial: gam= 0.00000 g(F)=  0.511E+00 g(S)=  0.300E+01 ort = 0.000E+00 (trialstep = 0.100E+01)
 search vector abs. value=  0.351E+01
 bond charge predicted
       N       E                     dE             d eps       ncg     rms          rms(c)
DAV:   1    -0.195237055046E+03   -0.14237E+03   -0.16937E+03  9856   0.447E+02    0.963E+01
DAV:   2    -0.130487701217E+03    0.64749E+02   -0.10817E+03 11152   0.244E+02    0.758E+01
DAV:   3    -0.748411394367E+02    0.55647E+02   -0.40190E+02 10784   0.170E+02    0.432E+01
DAV:   4    -0.665762303605E+02    0.82649E+01   -0.10514E+02 10528   0.844E+01    0.323E+01
DAV:   5    -0.563221266015E+02    0.10254E+02   -0.21011E+01 11552   0.576E+01    0.164E+01
DAV:   6    -0.545197886190E+02    0.18023E+01   -0.10045E+01 11936   0.368E+01    0.774E+00
DAV:   7    -0.538586314772E+02    0.66116E+00   -0.28971E+00 11920   0.201E+01    0.464E+00
DAV:   8    -0.536967362374E+02    0.16190E+00   -0.67968E-01 11184   0.102E+01    0.217E+00
DAV:   9    -0.536779369778E+02    0.18799E-01   -0.31904E-01 10808   0.557E+00    0.119E+00
DAV:  10    -0.536736528569E+02    0.42841E-02   -0.78825E-02 10624   0.311E+00    0.600E-01
DAV:  11    -0.536724098178E+02    0.12430E-02   -0.17173E-02 10584   0.129E+00    0.272E-01
DAV:  12    -0.536719561476E+02    0.45367E-03   -0.25806E-03 11584   0.614E-01    0.722E-02
DAV:  13    -0.536719409072E+02    0.15240E-04   -0.25628E-04 10872   0.149E-01    0.278E-02
DAV:  14    -0.536719358129E+02    0.50943E-05   -0.39678E-05 12048   0.510E-02    0.132E-02
DAV:  15    -0.536719364188E+02   -0.60588E-06   -0.94055E-06 11000   0.320E-02    0.694E-03
DAV:  16    -0.536719364123E+02    0.64647E-08   -0.15930E-06 11080   0.133E-02    0.221E-03
DAV:  17    -0.536719362345E+02    0.17780E-06   -0.18205E-07 10088   0.346E-03    0.509E-04
DAV:  18    -0.536719362066E+02    0.27871E-07   -0.16083E-08  6880   0.106E-03    0.345E-04
DAV:  19    -0.536719361896E+02    0.17073E-07   -0.97144E-09  5632   0.936E-04    0.112E-04
DAV:  20    -0.536719361869E+02    0.27103E-08   -0.18542E-09  5576   0.340E-04
   2 F= -.53671936E+02 E0= -.53671170E+02  d E =-.803622E+00  mag=    -0.0000
 trial-energy change:   -0.803622  1 .order   -0.962996   -3.505973    1.579981
 step:   0.6464(harm=  0.6893)  dis= 0.05418  next Energy=   -53.958350 (dE=-0.109E+01)
 bond charge predicted
       N       E                     dE             d eps       ncg     rms          rms(c)
DAV:   1    -0.775637948152E+02   -0.23892E+02   -0.20785E+02 10400   0.144E+02    0.506E+01
DAV:   2    -0.107216168870E+03   -0.29652E+02   -0.38691E+02 10480   0.190E+02    0.537E+01
DAV:   3    -0.548737074110E+02    0.52342E+02   -0.13826E+02 10784   0.108E+02    0.788E+00
DAV:   4    -0.543651561777E+02    0.50855E+00   -0.60305E+00 12400   0.198E+01    0.651E+00
DAV:   5    -0.545184627615E+02   -0.15331E+00   -0.39356E+00 10944   0.232E+01    0.830E+00
DAV:   6    -0.539944229487E+02    0.52404E+00   -0.12090E+00 12448   0.158E+01    0.304E+00
DAV:   7    -0.539412308621E+02    0.53192E-01   -0.32901E-01 11488   0.795E+00    0.976E-01
DAV:   8    -0.539424762013E+02   -0.12453E-02   -0.11670E-01 10880   0.314E+00    0.112E+00
DAV:   9    -0.539343200358E+02    0.81562E-02   -0.52479E-02 11968   0.212E+00    0.396E-01
DAV:  10    -0.539337027391E+02    0.61730E-03   -0.67432E-03 10848   0.831E-01    0.178E-01
DAV:  11    -0.539333810780E+02    0.32166E-03   -0.75140E-04 11264   0.213E-01    0.421E-02
DAV:  12    -0.539333739079E+02    0.71701E-05   -0.14847E-04 11216   0.782E-02    0.316E-02
DAV:  13    -0.539333657487E+02    0.81592E-05   -0.25333E-05 11600   0.481E-02    0.475E-03
DAV:  14    -0.539333654651E+02    0.28360E-06   -0.25785E-06 10496   0.918E-03    0.390E-03
DAV:  15    -0.539333654212E+02    0.43845E-07   -0.34498E-07 11344   0.476E-03    0.865E-04
DAV:  16    -0.539333653896E+02    0.31607E-07   -0.34795E-08  9344   0.133E-03    0.399E-04
DAV:  17    -0.539333653850E+02    0.46493E-08   -0.62734E-09  5584   0.681E-04
   3 F= -.53933365E+02 E0= -.53932759E+02  d E =-.106505E+01  mag=     0.0000
 curvature:  -0.34 expect dE=-0.147E+00 dE for cont linesearch -0.240E-05
 trial: gam= 0.12245 g(F)=  0.159E+00 g(S)=  0.275E+00 ort = 0.499E-02 (trialstep = 0.929E+00)
 search vector abs. value=  0.488E+00
 bond charge predicted
       N       E                     dE             d eps       ncg     rms          rms(c)
DAV:   1    -0.554305528550E+02   -0.14972E+01   -0.64305E+01 10880   0.150E+02    0.178E+01
DAV:   2    -0.606779831179E+02   -0.52474E+01   -0.59298E+01 10880   0.694E+01    0.215E+01
DAV:   3    -0.547703205559E+02    0.59077E+01   -0.15873E+01 11040   0.562E+01    0.103E+01
DAV:   4    -0.548522099623E+02   -0.81889E-01   -0.89182E+00 11440   0.285E+01    0.852E+00
DAV:   5    -0.544302353876E+02    0.42197E+00   -0.18130E+00 11808   0.180E+01    0.529E+00
DAV:   6    -0.542644331996E+02    0.16580E+00   -0.73700E-01 11424   0.120E+01    0.172E+00
DAV:   7    -0.542477289767E+02    0.16704E-01   -0.17309E-01 10896   0.400E+00    0.346E-01
DAV:   8    -0.542476567396E+02    0.72237E-04   -0.15781E-02 10848   0.973E-01    0.144E-01
DAV:   9    -0.542477564630E+02   -0.99723E-04   -0.15174E-03 12624   0.409E-01    0.108E-01
DAV:  10    -0.542477266852E+02    0.29778E-04   -0.46593E-04 11056   0.253E-01    0.358E-02
DAV:  11    -0.542477220073E+02    0.46780E-05   -0.72390E-05 10800   0.805E-02    0.118E-02
DAV:  12    -0.542477210653E+02    0.94196E-06   -0.69985E-06 11264   0.252E-02    0.355E-03
DAV:  13    -0.542477208356E+02    0.22969E-06   -0.96883E-07 10616   0.945E-03    0.977E-04
DAV:  14    -0.542477208075E+02    0.28111E-07   -0.10268E-07 10576   0.302E-03    0.412E-04
DAV:  15    -0.542477207848E+02    0.22712E-07   -0.99606E-09  5632   0.104E-03    0.217E-04
DAV:  16    -0.542477207672E+02    0.17561E-07   -0.30276E-09  5536   0.599E-04    0.980E-05
DAV:  17    -0.542477207669E+02    0.32014E-09   -0.77336E-10  5408   0.272E-04
   4 F= -.54247721E+02 E0= -.54247655E+02  d E =-.314355E+00  mag=     0.0000
 trial-energy change:   -0.314355  1 .order   -0.317271   -0.404164   -0.230377
 step:   2.6596(harm=  2.1612)  dis= 0.13782  next Energy=   -54.443383 (dE=-0.510E+00)
 bond charge predicted
       N       E                     dE             d eps       ncg     rms          rms(c)
DAV:   1    -0.592712545873E+02   -0.50235E+01   -0.23631E+02 10976   0.286E+02    0.333E+01
DAV:   2    -0.711571402434E+02   -0.11886E+02   -0.17308E+02 10768   0.123E+02    0.328E+01
DAV:   3    -0.551731261520E+02    0.15984E+02   -0.49070E+01 10944   0.809E+01    0.971E+00
DAV:   4    -0.565312046616E+02   -0.13581E+01   -0.14159E+01 11584   0.440E+01    0.164E+01
DAV:   5    -0.544266383626E+02    0.21046E+01   -0.52294E+00 11600   0.321E+01    0.412E+00
DAV:   6    -0.545330680280E+02   -0.10643E+00   -0.19080E+00 12112   0.170E+01    0.547E+00
DAV:   7    -0.543409182978E+02    0.19215E+00   -0.80894E-01 10752   0.115E+01    0.751E-01
DAV:   8    -0.543403619873E+02    0.55631E-03   -0.83171E-02 10800   0.234E+00    0.276E-01
DAV:   9    -0.543405972644E+02   -0.23528E-03   -0.67567E-03 10864   0.852E-01    0.160E-01
DAV:  10    -0.543406808638E+02   -0.83599E-04   -0.13800E-03 11216   0.442E-01    0.101E-01
DAV:  11    -0.543406218446E+02    0.59019E-04   -0.42950E-04 11680   0.234E-01    0.277E-02
DAV:  12    -0.543406172337E+02    0.46110E-05   -0.44122E-05 11456   0.671E-02    0.683E-03
DAV:  13    -0.543406167824E+02    0.45130E-06   -0.62437E-06 11344   0.241E-02    0.401E-03
DAV:  14    -0.543406167212E+02    0.61122E-07   -0.10077E-06 10688   0.111E-02    0.113E-03
DAV:  15    -0.543406166607E+02    0.60558E-07   -0.12107E-07 10208   0.415E-03    0.973E-04
DAV:  16    -0.543406166540E+02    0.67121E-08   -0.26520E-08  5952   0.199E-03
   5 F= -.54340617E+02 E0= -.54340135E+02  d E =-.407251E+00  mag=     0.0000
 curvature:  -1.01 expect dE=-0.503E+00 dE for cont linesearch -0.443E-01
 ZBRENT: interpolating
 opt :   2.0184  next Energy=   -54.387403 (dE=-0.454E+00)
 bond charge predicted
       N       E                     dE             d eps       ncg     rms          rms(c)
DAV:   1    -0.552291974864E+02   -0.88858E+00   -0.36065E+01 12160   0.101E+02    0.123E+01
DAV:   2    -0.570219324580E+02   -0.17927E+01   -0.28667E+01 10864   0.465E+01    0.153E+01
DAV:   3    -0.552396771534E+02    0.17823E+01   -0.13724E+01 10960   0.333E+01    0.107E+01
DAV:   4    -0.545411439848E+02    0.69853E+00   -0.29461E+00 10656   0.244E+01    0.370E+00
DAV:   5    -0.545480753072E+02   -0.69313E-02   -0.98727E-01 12944   0.132E+01    0.471E+00
DAV:   6    -0.543863085358E+02    0.16177E+00   -0.50228E-01 10992   0.108E+01    0.594E-01
DAV:   7    -0.543879099473E+02   -0.16014E-02   -0.60595E-02 10384   0.192E+00    0.282E-01
DAV:   8    -0.543876648043E+02    0.24514E-03   -0.37815E-03 11776   0.596E-01    0.101E-01
DAV:   9    -0.543877503354E+02   -0.85531E-04   -0.72896E-04 10512   0.257E-01    0.365E-02
DAV:  10    -0.543877571142E+02   -0.67788E-05   -0.74110E-05 10976   0.991E-02    0.169E-02
DAV:  11    -0.543877563203E+02    0.79385E-06   -0.15435E-05 12448   0.446E-02    0.562E-03
DAV:  12    -0.543877563053E+02    0.15003E-07   -0.21388E-06 10880   0.167E-02    0.181E-03
DAV:  13    -0.543877563482E+02   -0.42863E-07   -0.26047E-07 10144   0.524E-03    0.403E-04
DAV:  14    -0.543877563952E+02   -0.47043E-07   -0.21029E-08  6656   0.117E-03    0.223E-04
DAV:  15    -0.543877563915E+02    0.37144E-08   -0.60593E-09  5520   0.788E-04
   6 F= -.54387756E+02 E0= -.54387574E+02  d E =-.454391E+00  mag=     0.0000
 curvature:  -1.07 expect dE=-0.213E+00 dE for cont linesearch -0.299E-03
 trial: gam= 0.52775 g(F)=  0.696E-01 g(S)=  0.130E+00 ort = 0.117E-01 (trialstep = 0.115E+01)
 search vector abs. value=  0.347E+00
 bond charge predicted
       N       E                     dE             d eps       ncg     rms          rms(c)
DAV:   1    -0.516729101466E+02    0.27148E+01   -0.11324E+02 10528   0.257E+02    0.146E+01
DAV:   2    -0.579840922099E+02   -0.63112E+01   -0.79682E+01 10960   0.667E+01    0.203E+01
DAV:   3    -0.571371030128E+02    0.84699E+00   -0.34030E+01 11696   0.470E+01    0.170E+01
DAV:   4    -0.549258678201E+02    0.22112E+01   -0.47927E+00 10928   0.315E+01    0.581E+00
DAV:   5    -0.545904279133E+02    0.33544E+00   -0.13073E+00 11904   0.114E+01    0.279E+00
DAV:   6    -0.546917295365E+02   -0.10130E+00   -0.11316E+00 11168   0.151E+01    0.471E+00
DAV:   7    -0.545392469319E+02    0.15248E+00   -0.43455E-01 10848   0.938E+00    0.466E-01
DAV:   8    -0.545413862114E+02   -0.21393E-02   -0.52757E-02 10512   0.177E+00    0.428E-01
DAV:   9    -0.545406079062E+02    0.77831E-03   -0.55834E-03 10400   0.779E-01    0.110E-01
DAV:  10    -0.545406934575E+02   -0.85551E-04   -0.65499E-04 10832   0.208E-01    0.319E-02
DAV:  11    -0.545406820638E+02    0.11394E-04   -0.11433E-04 13104   0.111E-01    0.242E-02
DAV:  12    -0.545406800421E+02    0.20218E-05   -0.41970E-05 10576   0.594E-02    0.110E-02
DAV:  13    -0.545406790935E+02    0.94853E-06   -0.63420E-06 10784   0.251E-02    0.244E-03
DAV:  14    -0.545406791670E+02   -0.73444E-07   -0.29587E-07 11184   0.406E-03    0.104E-03
DAV:  15    -0.545406791545E+02    0.12522E-07   -0.48301E-08  9120   0.172E-03    0.198E-04
DAV:  16    -0.545406791465E+02    0.79708E-08   -0.34128E-09  5648   0.515E-04
   7 F= -.54540679E+02 E0= -.54539900E+02  d E =-.152923E+00  mag=    -0.0000
 trial-energy change:   -0.152923  1 .order   -0.154829   -0.235474   -0.074183
 step:   1.7382(harm=  1.6747)  dis= 0.06726  next Energy=   -54.559532 (dE=-0.172E+00)
 bond charge predicted
       N       E                     dE             d eps       ncg     rms          rms(c)
DAV:   1    -0.537466159764E+02    0.79406E+00   -0.28609E+01 10672   0.133E+02    0.743E+00
DAV:   2    -0.554671988884E+02   -0.17206E+01   -0.20508E+01 10896   0.342E+01    0.110E+01
DAV:   3    -0.553036301224E+02    0.16357E+00   -0.10270E+01 11472   0.267E+01    0.979E+00
DAV:   4    -0.546554027142E+02    0.64823E+00   -0.16763E+00 10896   0.183E+01    0.283E+00
DAV:   5    -0.545966120045E+02    0.58791E-01   -0.36189E-01 12528   0.695E+00    0.241E+00
DAV:   6    -0.545764775398E+02    0.20134E-01   -0.33603E-01 10944   0.811E+00    0.159E+00
DAV:   7    -0.545595585919E+02    0.16919E-01   -0.63274E-02 10752   0.331E+00    0.150E-01
DAV:   8    -0.545599277518E+02   -0.36916E-03   -0.78528E-03 10864   0.639E-01    0.117E-01
DAV:   9    -0.545599018475E+02    0.25904E-04   -0.48092E-04 11648   0.201E-01    0.423E-02
DAV:  10    -0.545599209383E+02   -0.19091E-04   -0.46738E-05 10960   0.577E-02    0.115E-02
DAV:  11    -0.545599198737E+02    0.10646E-05   -0.86058E-06 12896   0.337E-02    0.422E-03
DAV:  12    -0.545599198463E+02    0.27376E-07   -0.73791E-07 11344   0.820E-03    0.133E-03
DAV:  13    -0.545599199016E+02   -0.55261E-07   -0.77076E-08 10048   0.198E-03    0.327E-04
DAV:  14    -0.545599199069E+02   -0.52787E-08   -0.11481E-08  6320   0.117E-03
   8 F= -.54559920E+02 E0= -.54559381E+02  d E =-.172164E+00  mag=     0.0000
 curvature:  -1.40 expect dE=-0.188E+00 dE for cont linesearch -0.482E-04
 trial: gam= 0.73603 g(F)=  0.426E-01 g(S)=  0.920E-01 ort =-0.346E-02 (trialstep = 0.127E+01)
 search vector abs. value=  0.318E+00
 bond charge predicted
       N       E                     dE             d eps       ncg     rms          rms(c)
DAV:   1    -0.517458788161E+02    0.28140E+01   -0.15827E+02 11696   0.341E+02    0.222E+01
DAV:   2    -0.621854313549E+02   -0.10440E+02   -0.12277E+02 10768   0.937E+01    0.231E+01
DAV:   3    -0.554389702145E+02    0.67465E+01   -0.25350E+01 10912   0.645E+01    0.121E+01
DAV:   4    -0.551661972558E+02    0.27277E+00   -0.84869E+00 12208   0.292E+01    0.774E+00
DAV:   5    -0.548969559931E+02    0.26924E+00   -0.18169E+00 12192   0.165E+01    0.579E+00
DAV:   6    -0.546864941342E+02    0.21046E+00   -0.10197E+00 11216   0.140E+01    0.254E+00
DAV:   7    -0.546398160791E+02    0.46678E-01   -0.26770E-01 12112   0.590E+00    0.567E-01
DAV:   8    -0.546405079740E+02   -0.69189E-03   -0.41842E-02 10384   0.193E+00    0.222E-01
DAV:   9    -0.546405118907E+02   -0.39166E-05   -0.47576E-03 10736   0.703E-01    0.158E-01
DAV:  10    -0.546404277854E+02    0.84105E-04   -0.75274E-04 11936   0.304E-01    0.427E-02
DAV:  11    -0.546404175850E+02    0.10200E-04   -0.94916E-05 12048   0.903E-02    0.123E-02
DAV:  12    -0.546404161325E+02    0.14525E-05   -0.11687E-05 10784   0.342E-02    0.497E-03
DAV:  13    -0.546404153609E+02    0.77153E-06   -0.21906E-06 10960   0.141E-02    0.243E-03
DAV:  14    -0.546404152013E+02    0.15962E-06   -0.32059E-07 10688   0.586E-03    0.478E-04
DAV:  15    -0.546404151257E+02    0.75655E-07   -0.20609E-08  6656   0.148E-03    0.284E-04
DAV:  16    -0.546404151102E+02    0.15465E-07   -0.56882E-09  5712   0.739E-04    0.770E-05
DAV:  17    -0.546404151098E+02    0.42928E-09   -0.13366E-09  5520   0.270E-04
   9 F= -.54640415E+02 E0= -.54639847E+02  d E =-.804952E-01  mag=     0.0000
 trial-energy change:   -0.080495  1 .order   -0.079913   -0.167005    0.007180
 step:   1.2142(harm=  1.2132)  dis= 0.04868  next Energy=   -54.640560 (dE=-0.806E-01)
 bond charge predicted
       N       E                     dE             d eps       ncg     rms          rms(c)
DAV:   1    -0.546348127330E+02    0.56024E-02   -0.26302E-01 10608   0.139E+01    0.893E-01
DAV:   2    -0.546539230390E+02   -0.19110E-01   -0.22497E-01 10928   0.382E+00    0.111E+00
DAV:   3    -0.546467547176E+02    0.71683E-02   -0.84577E-02 10832   0.303E+00    0.104E+00
DAV:   4    -0.546412302065E+02    0.55245E-02   -0.29981E-02 10848   0.219E+00    0.241E-01
DAV:   5    -0.546409663348E+02    0.26387E-03   -0.23103E-03 13184   0.541E-01    0.218E-01
DAV:   6    -0.546407394510E+02    0.22688E-03   -0.20525E-03 10928   0.676E-01    0.130E-01
DAV:   7    -0.546406290578E+02    0.11039E-03   -0.42213E-04 12448   0.247E-01    0.177E-02
DAV:   8    -0.546406296446E+02   -0.58682E-06   -0.53466E-05 10672   0.588E-02    0.106E-02
DAV:   9    -0.546406296690E+02   -0.24404E-07   -0.36533E-06 10640   0.186E-02    0.389E-03
DAV:  10    -0.546406298418E+02   -0.17274E-06   -0.48333E-07 12160   0.521E-03    0.102E-03
DAV:  11    -0.546406299127E+02   -0.70941E-07   -0.61974E-08  9248   0.209E-03    0.191E-04
DAV:  12    -0.546406299358E+02   -0.23116E-07   -0.34109E-09  5760   0.556E-04    0.837E-05
DAV:  13    -0.546406299421E+02   -0.62319E-08   -0.67942E-10  5312   0.233E-04
  10 F= -.54640630E+02 E0= -.54640086E+02  d E =-.807100E-01  mag=     0.0000
 curvature:  -1.46 expect dE=-0.790E-01 dE for cont linesearch -0.175E-06
 trial: gam= 0.43450 g(F)=  0.317E-01 g(S)=  0.224E-01 ort = 0.195E-03 (trialstep = 0.126E+01)
 search vector abs. value=  0.114E+00
 bond charge predicted
       N       E                     dE             d eps       ncg     rms          rms(c)
DAV:   1    -0.516584617457E+02    0.29822E+01   -0.63185E+01 13408   0.230E+02    0.405E+00
DAV:   2    -0.547915571011E+02   -0.31331E+01   -0.32102E+01  9984   0.341E+01    0.460E+00
DAV:   3    -0.548263554893E+02   -0.34798E-01   -0.22540E+00 12288   0.185E+01    0.439E+00
DAV:   4    -0.547088909547E+02    0.11746E+00   -0.49904E-01 11328   0.986E+00    0.150E+00
DAV:   5    -0.546983070759E+02    0.10584E-01   -0.45644E-02 11600   0.181E+00    0.110E+00
DAV:   6    -0.547104462352E+02   -0.12139E-01   -0.96695E-02 11120   0.360E+00    0.202E+00
DAV:   7    -0.546862481421E+02    0.24198E-01   -0.10213E-01 12624   0.354E+00    0.299E-01
DAV:   8    -0.546856736574E+02    0.57448E-03   -0.62974E-03 11520   0.582E-01    0.820E-02
DAV:   9    -0.546856583668E+02    0.15291E-04   -0.45237E-04 10848   0.166E-01    0.375E-02
DAV:  10    -0.546856618851E+02   -0.35183E-05   -0.59443E-05 10784   0.527E-02    0.122E-02
DAV:  11    -0.546856624630E+02   -0.57791E-06   -0.43804E-06 12320   0.161E-02    0.367E-03
DAV:  12    -0.546856627177E+02   -0.25471E-06   -0.66968E-07 10464   0.952E-03    0.157E-03
DAV:  13    -0.546856627371E+02   -0.19456E-07   -0.13718E-07 10720   0.475E-03    0.413E-04
DAV:  14    -0.546856627661E+02   -0.28926E-07   -0.11351E-08  5840   0.925E-04    0.148E-04
DAV:  15    -0.546856627680E+02   -0.19245E-08   -0.24679E-09  5680   0.442E-04
  11 F= -.54685663E+02 E0= -.54685083E+02  d E =-.450328E-01  mag=     0.0000
 trial-energy change:   -0.045033  1 .order   -0.045539   -0.068024   -0.023054
 step:   1.9750(harm=  1.8985)  dis= 0.04653  next Energy=   -54.692179 (dE=-0.515E-01)
 bond charge predicted
       N       E                     dE             d eps       ncg     rms          rms(c)
DAV:   1    -0.537418793480E+02    0.94378E+00   -0.20972E+01 13952   0.133E+02    0.248E+00
DAV:   2    -0.547430103665E+02   -0.10011E+01   -0.10281E+01 10144   0.191E+01    0.272E+00
DAV:   3    -0.547333712283E+02    0.96391E-02   -0.69161E-01 12176   0.101E+01    0.248E+00
DAV:   4    -0.546992543759E+02    0.34117E-01   -0.17452E-01 10944   0.594E+00    0.842E-01
DAV:   5    -0.546956397847E+02    0.36146E-02   -0.16036E-02 12960   0.122E+00    0.622E-01
DAV:   6    -0.546974040958E+02   -0.17643E-02   -0.20888E-02 11200   0.169E+00    0.876E-01
DAV:   7    -0.546919399318E+02    0.54642E-02   -0.17914E-02 12784   0.181E+00    0.141E-01
DAV:   8    -0.546918448434E+02    0.95088E-04   -0.20553E-03 11624   0.336E-01    0.302E-02
DAV:   9    -0.546918463678E+02   -0.15243E-05   -0.11393E-04 10576   0.104E-01    0.210E-02
DAV:  10    -0.546918471285E+02   -0.76078E-06   -0.10911E-05 11472   0.236E-02    0.438E-03
DAV:  11    -0.546918474213E+02   -0.29279E-06   -0.14254E-06 10432   0.119E-02    0.124E-03
DAV:  12    -0.546918475304E+02   -0.10903E-06   -0.10232E-07 12480   0.259E-03    0.464E-04
DAV:  13    -0.546918475712E+02   -0.40833E-07   -0.11284E-08  5968   0.992E-04    0.252E-04
DAV:  14    -0.546918475873E+02   -0.16054E-07   -0.53621E-09  5600   0.952E-04    0.506E-05
DAV:  15    -0.546918475902E+02   -0.29067E-08   -0.88294E-10  5504   0.212E-04
  12 F= -.54691848E+02 E0= -.54691381E+02  d E =-.512176E-01  mag=     0.0000
 curvature:  -1.97 expect dE=-0.432E-01 dE for cont linesearch -0.249E-04
 trial: gam= 0.37710 g(F)=  0.129E-01 g(S)=  0.904E-02 ort =-0.120E-02 (trialstep = 0.140E+01)
 search vector abs. value=  0.373E-01
 bond charge predicted
       N       E                     dE             d eps       ncg     rms          rms(c)
DAV:   1    -0.542060265366E+02    0.48582E+00   -0.12378E+01 12176   0.982E+01    0.376E+00
DAV:   2    -0.548646061536E+02   -0.65858E+00   -0.74111E+00 10736   0.189E+01    0.349E+00
DAV:   3    -0.547402433116E+02    0.12436E+00   -0.76530E-01 10664   0.861E+00    0.173E+00
DAV:   4    -0.547386511486E+02    0.15922E-02   -0.16483E-01 11360   0.514E+00    0.175E+00
DAV:   5    -0.547167029013E+02    0.21948E-01   -0.70536E-02 10976   0.367E+00    0.544E-01
DAV:   6    -0.547267532040E+02   -0.10050E-01   -0.62486E-02 12072   0.307E+00    0.141E+00
DAV:   7    -0.547143063350E+02    0.12447E-01   -0.43360E-02 10880   0.264E+00    0.915E-02
DAV:   8    -0.547143896182E+02   -0.83283E-04   -0.27857E-03 10456   0.338E-01    0.640E-02
DAV:   9    -0.547143770086E+02    0.12610E-04   -0.12062E-04 11440   0.937E-02    0.315E-02
DAV:  10    -0.547143735633E+02    0.34453E-05   -0.21970E-05 12152   0.346E-02    0.533E-03
DAV:  11    -0.547143729726E+02    0.59072E-06   -0.24394E-06 10992   0.141E-02    0.133E-03
DAV:  12    -0.547143727182E+02    0.25444E-06   -0.18270E-07 10256   0.394E-03    0.476E-04
DAV:  13    -0.547143726742E+02    0.43950E-07   -0.12830E-08  6016   0.123E-03    0.142E-04
DAV:  14    -0.547143726664E+02    0.77707E-08   -0.34935E-09  5832   0.473E-04
  13 F= -.54714373E+02 E0= -.54714336E+02  d E =-.225251E-01  mag=    -0.0000
 trial-energy change:   -0.022525  1 .order   -0.022237   -0.030024   -0.014450
 step:   2.4837(harm=  2.6972)  dis= 0.03837  next Energy=   -54.720108 (dE=-0.283E-01)
 bond charge predicted
       N       E                     dE             d eps       ncg     rms          rms(c)
DAV:   1    -0.544085909462E+02    0.30578E+00   -0.73950E+00 11920   0.763E+01    0.289E+00
DAV:   2    -0.548059722846E+02   -0.39738E+00   -0.44828E+00 10720   0.146E+01    0.263E+00
DAV:   3    -0.547354779817E+02    0.70494E-01   -0.43686E-01 10616   0.664E+00    0.128E+00
DAV:   4    -0.547335705527E+02    0.19074E-02   -0.78766E-02 11376   0.404E+00    0.130E+00
DAV:   5    -0.547213962464E+02    0.12174E-01   -0.37615E-02 10952   0.279E+00    0.366E-01
DAV:   6    -0.547213076260E+02    0.88620E-04   -0.12628E-02 12992   0.110E+00    0.446E-01
DAV:   7    -0.547202188994E+02    0.10887E-02   -0.53030E-03 11008   0.886E-01    0.677E-02
DAV:   8    -0.547201938331E+02    0.25066E-04   -0.59949E-04 10824   0.192E-01    0.529E-02
DAV:   9    -0.547201800369E+02    0.13796E-04   -0.49182E-05 11432   0.693E-02    0.163E-02
DAV:  10    -0.547201792883E+02    0.74855E-06   -0.83130E-06 12256   0.219E-02    0.328E-03
DAV:  11    -0.547201789569E+02    0.33143E-06   -0.79624E-07 10408   0.917E-03    0.915E-04
DAV:  12    -0.547201788053E+02    0.15157E-06   -0.58139E-08  9392   0.223E-03    0.240E-04
DAV:  13    -0.547201787800E+02    0.25328E-07   -0.62757E-09  5744   0.975E-04    0.794E-05
DAV:  14    -0.547201787695E+02    0.10452E-07   -0.14877E-09  5536   0.311E-04    0.351E-05
DAV:  15    -0.547201787691E+02    0.47294E-09   -0.43504E-10  5352   0.184E-04
  14 F= -.54720179E+02 E0= -.54720287E+02  d E =-.283312E-01  mag=     0.0000
 curvature:  -2.28 expect dE=-0.779E-01 dE for cont linesearch -0.654E-05
 trial: gam= 1.46672 g(F)=  0.994E-02 g(S)=  0.243E-01 ort = 0.327E-03 (trialstep = 0.522E+00)
 search vector abs. value=  0.115E+00
 bond charge predicted
       N       E                     dE             d eps       ncg     rms          rms(c)
DAV:   1    -0.545900914923E+02    0.13009E+00   -0.66380E+00 10784   0.680E+01    0.440E+00
DAV:   2    -0.550695788976E+02   -0.47949E+00   -0.56906E+00 10736   0.190E+01    0.569E+00
DAV:   3    -0.548835678298E+02    0.18601E+00   -0.23068E+00 10800   0.152E+01    0.481E+00
DAV:   4    -0.547459283033E+02    0.13764E+00   -0.58961E-01 10752   0.992E+00    0.109E+00
DAV:   5    -0.547360395984E+02    0.98887E-02   -0.40615E-02 10560   0.161E+00    0.444E-01
DAV:   6    -0.547393141305E+02   -0.32745E-02   -0.23782E-02 11536   0.220E+00    0.863E-01
DAV:   7    -0.547343420259E+02    0.49721E-02   -0.15768E-02 10960   0.194E+00    0.745E-02
DAV:   8    -0.547343791596E+02   -0.37134E-04   -0.12492E-03 10512   0.235E-01    0.446E-02
DAV:   9    -0.547343812727E+02   -0.21131E-05   -0.75479E-05 11936   0.917E-02    0.215E-02
DAV:  10    -0.547343820643E+02   -0.79154E-06   -0.17507E-05 11440   0.368E-02    0.613E-03
DAV:  11    -0.547343818937E+02    0.17059E-06   -0.14720E-06 10328   0.119E-02    0.197E-03
DAV:  12    -0.547343819489E+02   -0.55199E-07   -0.25761E-07 11680   0.421E-03    0.670E-04
DAV:  13    -0.547343819566E+02   -0.77234E-08   -0.24399E-08  7280   0.146E-03
  15 F= -.54734382E+02 E0= -.54734685E+02  d E =-.142032E-01  mag=     0.0000
 trial-energy change:   -0.014203  1 .order   -0.014127   -0.018112   -0.010141
 step:   1.1136(harm=  1.1862)  dis= 0.02641  next Energy=   -54.740239 (dE=-0.201E-01)
 bond charge predicted
       N       E                     dE             d eps       ncg     rms          rms(c)
DAV:   1    -0.545535077440E+02    0.18087E+00   -0.85051E+00 10752   0.769E+01    0.497E+00
DAV:   2    -0.551694498738E+02   -0.61594E+00   -0.73353E+00 10752   0.214E+01    0.642E+00
DAV:   3    -0.549230999181E+02    0.24635E+00   -0.29081E+00 10816   0.169E+01    0.532E+00
DAV:   4    -0.547550839373E+02    0.16802E+00   -0.71584E-01 10784   0.110E+01    0.124E+00
DAV:   5    -0.547421885858E+02    0.12895E-01   -0.51885E-02 10544   0.186E+00    0.522E-01
DAV:   6    -0.547479924896E+02   -0.58039E-02   -0.38083E-02 11744   0.281E+00    0.110E+00
DAV:   7    -0.547398046783E+02    0.81878E-02   -0.24896E-02 10928   0.225E+00    0.841E-02
DAV:   8    -0.547398697019E+02   -0.65024E-04   -0.18682E-03 10504   0.275E-01    0.500E-02
DAV:   9    -0.547398734727E+02   -0.37708E-05   -0.10413E-04 12096   0.104E-01    0.264E-02
DAV:  10    -0.547398738902E+02   -0.41747E-06   -0.22134E-05 11424   0.403E-02    0.636E-03
DAV:  11    -0.547398737844E+02    0.10582E-06   -0.16766E-06 10304   0.122E-02    0.271E-03
DAV:  12    -0.547398738328E+02   -0.48476E-07   -0.41956E-07 11408   0.570E-03    0.765E-04
DAV:  13    -0.547398738460E+02   -0.13199E-07   -0.36615E-08  8960   0.180E-03    0.141E-04
DAV:  14    -0.547398738685E+02   -0.22512E-07   -0.16861E-09  5648   0.375E-04    0.517E-05
DAV:  15    -0.547398738767E+02   -0.81236E-08   -0.54685E-10  5368   0.215E-04
  16 F= -.54739874E+02 E0= -.54740161E+02  d E =-.196951E-01  mag=     0.0000
 curvature:  -1.95 expect dE=-0.214E-01 dE for cont linesearch -0.350E-04
 trial: gam= 0.23724 g(F)=  0.813E-02 g(S)=  0.285E-02 ort =-0.144E-02 (trialstep = 0.640E+00)
 search vector abs. value=  0.168E-01
 bond charge predicted
       N       E                     dE             d eps       ncg     rms          rms(c)
DAV:   1    -0.546340473986E+02    0.10583E+00   -0.25548E+00 13664   0.437E+01    0.124E+00
DAV:   2    -0.547593448251E+02   -0.12530E+00   -0.13428E+00 10544   0.711E+00    0.112E+00
DAV:   3    -0.547484341403E+02    0.10911E-01   -0.95220E-02 10920   0.293E+00    0.593E-01
DAV:   4    -0.547479962872E+02    0.43785E-03   -0.18989E-02 11632   0.178E+00    0.581E-01
DAV:   5    -0.547455668663E+02    0.24294E-02   -0.77153E-03 11080   0.123E+00    0.203E-01
DAV:   6    -0.547460793076E+02   -0.51244E-03   -0.52900E-03 13368   0.921E-01    0.382E-01
DAV:   7    -0.547451130908E+02    0.96622E-03   -0.36083E-03 10976   0.805E-01    0.420E-02
DAV:   8    -0.547451123357E+02    0.75508E-06   -0.27581E-04 10480   0.115E-01    0.195E-02
DAV:   9    -0.547451112653E+02    0.10703E-05   -0.16311E-05 11120   0.384E-02    0.900E-03
DAV:  10    -0.547451107297E+02    0.53563E-06   -0.22987E-06 11728   0.110E-02    0.196E-03
DAV:  11    -0.547451105367E+02    0.19305E-06   -0.29417E-07 10416   0.504E-03    0.608E-04
DAV:  12    -0.547451104565E+02    0.80137E-07   -0.22074E-08  7520   0.135E-03    0.152E-04
DAV:  13    -0.547451104429E+02    0.13606E-07   -0.38556E-09  5648   0.655E-04    0.678E-05
DAV:  14    -0.547451104417E+02    0.12187E-08   -0.93732E-10  5424   0.237E-04
  17 F= -.54745110E+02 E0= -.54745395E+02  d E =-.523657E-02  mag=    -0.0000
 trial-energy change:   -0.005237  1 .order   -0.005226   -0.006813   -0.003639
 step:   1.3744(harm=  1.3744)  dis= 0.01981  next Energy=   -54.747185 (dE=-0.731E-02)
 bond charge predicted
       N       E                     dE             d eps       ncg     rms          rms(c)
DAV:   1    -0.546005152507E+02    0.14460E+00   -0.33478E+00 13568   0.501E+01    0.142E+00
DAV:   2    -0.547654060460E+02   -0.16489E+00   -0.17667E+00 10560   0.817E+00    0.126E+00
DAV:   3    -0.547515397907E+02    0.13866E-01   -0.12367E-01 10888   0.334E+00    0.679E-01
DAV:   4    -0.547508947514E+02    0.64504E-03   -0.24409E-02 11624   0.202E+00    0.660E-01
DAV:   5    -0.547477710841E+02    0.31237E-02   -0.10082E-02 11072   0.142E+00    0.235E-01
DAV:   6    -0.547484538513E+02   -0.68277E-03   -0.70652E-03 13296   0.107E+00    0.440E-01
DAV:   7    -0.547471697345E+02    0.12841E-02   -0.48052E-03 10944   0.933E-01    0.480E-02
DAV:   8    -0.547471690614E+02    0.67316E-06   -0.36564E-04 10528   0.132E-01    0.228E-02
DAV:   9    -0.547471676289E+02    0.14325E-05   -0.21994E-05 11104   0.448E-02    0.104E-02
DAV:  10    -0.547471669952E+02    0.63375E-06   -0.31233E-06 11712   0.127E-02    0.230E-03
DAV:  11    -0.547471667708E+02    0.22436E-06   -0.40425E-07 10432   0.587E-03    0.716E-04
DAV:  12    -0.547471666782E+02    0.92634E-07   -0.33898E-08  8944   0.160E-03    0.185E-04
DAV:  13    -0.547471666588E+02    0.19332E-07   -0.36273E-09  5744   0.690E-04    0.823E-05
DAV:  14    -0.547471666569E+02    0.19681E-08   -0.77091E-10  5440   0.244E-04
  18 F= -.54747167E+02 E0= -.54747464E+02  d E =-.729278E-02  mag=    -0.0000
 curvature:  -1.08 expect dE=-0.229E-02 dE for cont linesearch -0.968E-06
 trial: gam= 0.09699 g(F)=  0.537E-03 g(S)=  0.157E-02 ort =-0.122E-03 (trialstep = 0.787E+00)
 search vector abs. value=  0.224E-02
 bond charge predicted
       N       E                     dE             d eps       ncg     rms          rms(c)
DAV:   1    -0.547436873950E+02    0.34793E-02   -0.27415E-01 10928   0.119E+01    0.809E-01
DAV:   2    -0.547560795286E+02   -0.12392E-01   -0.17521E-01 10816   0.340E+00    0.761E-01
DAV:   3    -0.547499542228E+02    0.61253E-02   -0.27893E-02 10688   0.162E+00    0.387E-01
DAV:   4    -0.547506525432E+02   -0.69832E-03   -0.13831E-02 11456   0.150E+00    0.556E-01
DAV:   5    -0.547483835864E+02    0.22690E-02   -0.74622E-03 11624   0.105E+00    0.576E-02
DAV:   6    -0.547485723258E+02   -0.18874E-03   -0.13109E-03 13120   0.455E-01    0.166E-01
DAV:   7    -0.547483871356E+02    0.18519E-03   -0.66409E-04 10880   0.380E-01    0.156E-02
DAV:   8    -0.547483890067E+02   -0.18711E-05   -0.54171E-05 10496   0.531E-02    0.110E-02
DAV:   9    -0.547483890903E+02   -0.83532E-07   -0.48686E-06 11016   0.213E-02    0.459E-03
DAV:  10    -0.547483892226E+02   -0.13230E-06   -0.63182E-07 10736   0.924E-03    0.103E-03
DAV:  11    -0.547483893037E+02   -0.81138E-07   -0.77539E-08  9376   0.219E-03    0.298E-04
DAV:  12    -0.547483893452E+02   -0.41447E-07   -0.62591E-09  5656   0.821E-04    0.126E-04
DAV:  13    -0.547483893558E+02   -0.10670E-07   -0.17178E-09  5344   0.406E-04    0.266E-05
DAV:  14    -0.547483893562E+02   -0.36744E-09   -0.58952E-10  5240   0.174E-04
  19 F= -.54748389E+02 E0= -.54748797E+02  d E =-.122270E-02  mag=    -0.0000
 trial-energy change:   -0.001223  1 .order   -0.001230   -0.001650   -0.000811
 step:   1.6467(harm=  1.5474)  dis= 0.00437  next Energy=   -54.748822 (dE=-0.166E-02)
 bond charge predicted
       N       E                     dE             d eps       ncg     rms          rms(c)
DAV:   1    -0.547431295996E+02    0.52598E-02   -0.32657E-01 10928   0.130E+01    0.881E-01
DAV:   2    -0.547578662446E+02   -0.14737E-01   -0.20840E-01 10816   0.370E+00    0.828E-01
DAV:   3    -0.547505923476E+02    0.72739E-02   -0.32691E-02 10704   0.174E+00    0.412E-01
DAV:   4    -0.547515359103E+02   -0.94356E-03   -0.16477E-02 11536   0.163E+00    0.621E-01
DAV:   5    -0.547487629562E+02    0.27730E-02   -0.94885E-03 11480   0.118E+00    0.657E-02
DAV:   6    -0.547490006000E+02   -0.23764E-03   -0.16603E-03 13112   0.510E-01    0.187E-01
DAV:   7    -0.547487647155E+02    0.23588E-03   -0.83683E-04 10888   0.426E-01    0.172E-02
DAV:   8    -0.547487670417E+02   -0.23263E-05   -0.67999E-05 10560   0.591E-02    0.122E-02
DAV:   9    -0.547487670813E+02   -0.39545E-07   -0.60413E-06 10984   0.240E-02    0.511E-03
DAV:  10    -0.547487672304E+02   -0.14920E-06   -0.77510E-07 10768   0.102E-02    0.118E-03
DAV:  11    -0.547487673197E+02   -0.89287E-07   -0.97828E-08  9624   0.247E-03    0.341E-04
DAV:  12    -0.547487673684E+02   -0.48651E-07   -0.78514E-09  5656   0.920E-04    0.139E-04
DAV:  13    -0.547487673800E+02   -0.11638E-07   -0.21827E-09  5392   0.451E-04    0.304E-05
DAV:  14    -0.547487673813E+02   -0.13024E-08   -0.73303E-10  5280   0.192E-04
  20 F= -.54748767E+02 E0= -.54749305E+02  d E =-.160072E-02  mag=    -0.0000
 curvature:  -0.81 expect dE=-0.840E-03 dE for cont linesearch -0.729E-05
 trial: gam= 0.55311 g(F)=  0.146E-03 g(S)=  0.887E-03 ort =-0.142E-03 (trialstep = 0.959E+00)
 search vector abs. value=  0.156E-02
 bond charge predicted
       N       E                     dE             d eps       ncg     rms          rms(c)
DAV:   1    -0.547832694688E+02   -0.34502E-01   -0.51194E-01 10784   0.115E+01    0.206E+00
DAV:   2    -0.548345592283E+02   -0.51290E-01   -0.67795E-01 10864   0.764E+00    0.269E+00
DAV:   3    -0.547619320932E+02    0.72627E-01   -0.34878E-01 10768   0.671E+00    0.156E+00
DAV:   4    -0.547505801811E+02    0.11352E-01   -0.91680E-02 10672   0.348E+00    0.384E-01
DAV:   5    -0.547502628223E+02    0.31736E-03   -0.87238E-03 12736   0.105E+00    0.420E-01
DAV:   6    -0.547491459816E+02    0.11168E-02   -0.51687E-03 10880   0.102E+00    0.116E-01
DAV:   7    -0.547490670057E+02    0.78976E-04   -0.58607E-04 10856   0.233E-01    0.230E-02
DAV:   8    -0.547490660965E+02    0.90929E-06   -0.48153E-05 10568   0.523E-02    0.871E-03
DAV:   9    -0.547490652242E+02    0.87228E-06   -0.34395E-06 10808   0.139E-02    0.210E-03
DAV:  10    -0.547490650029E+02    0.22131E-06   -0.21028E-07 10792   0.325E-03    0.951E-04
DAV:  11    -0.547490649645E+02    0.38403E-07   -0.26176E-08  7152   0.154E-03    0.277E-04
DAV:  12    -0.547490649440E+02    0.20493E-07   -0.10328E-08  5760   0.794E-04    0.120E-04
DAV:  13    -0.547490649432E+02    0.81855E-09   -0.21346E-09  5392   0.359E-04
  21 F= -.54749065E+02 E0= -.54749685E+02  d E =-.297562E-03  mag=     0.0000
 trial-energy change:   -0.000298  1 .order   -0.000295   -0.000916    0.000327
 step:   0.7097(harm=  0.7070)  dis= 0.00102  next Energy=   -54.749107 (dE=-0.340E-03)
 bond charge predicted
       N       E                     dE             d eps       ncg     rms          rms(c)
DAV:   1    -0.547514286464E+02   -0.23637E-02   -0.34778E-02 10896   0.299E+00    0.535E-01
DAV:   2    -0.547548561581E+02   -0.34275E-02   -0.46338E-02 10880   0.198E+00    0.704E-01
DAV:   3    -0.547500693899E+02    0.47868E-02   -0.24713E-02 10784   0.164E+00    0.416E-01
DAV:   4    -0.547492007075E+02    0.86868E-03   -0.60828E-03 10688   0.980E-01    0.971E-02
DAV:   5    -0.547491454767E+02    0.55231E-04   -0.44270E-04 12448   0.209E-01    0.780E-02
DAV:   6    -0.547491149555E+02    0.30521E-04   -0.24817E-04 10832   0.228E-01    0.375E-02
DAV:   7    -0.547491061616E+02    0.87940E-05   -0.39307E-05 10992   0.773E-02    0.652E-03
DAV:   8    -0.547491068491E+02   -0.68747E-06   -0.47483E-06 10480   0.160E-02    0.232E-03
DAV:   9    -0.547491071069E+02   -0.25781E-06   -0.32405E-07 10904   0.466E-03    0.751E-04
DAV:  10    -0.547491071754E+02   -0.68547E-07   -0.26802E-08  7792   0.145E-03    0.380E-04
DAV:  11    -0.547491071770E+02   -0.16298E-08   -0.49217E-09  5408   0.742E-04
  22 F= -.54749107E+02 E0= -.54749707E+02  d E =-.339796E-03  mag=     0.0000
 curvature:  -0.58 expect dE=-0.802E-04 dE for cont linesearch -0.130E-07
 trial: gam= 0.03202 g(F)=  0.117E-03 g(S)=  0.216E-04 ort = 0.592E-05 (trialstep = 0.909E+00)
 search vector abs. value=  0.141E-03
 bond charge predicted
       N       E                     dE             d eps       ncg     rms          rms(c)
DAV:   1    -0.547473170566E+02    0.17901E-02   -0.43479E-02 12880   0.600E+00    0.104E-01
DAV:   2    -0.547492286722E+02   -0.19116E-02   -0.19974E-02  9680   0.828E-01    0.872E-02
DAV:   3    -0.547492878623E+02   -0.59190E-04   -0.10315E-03 12080   0.415E-01    0.100E-01
DAV:   4    -0.547492116818E+02    0.76180E-04   -0.21181E-04 11248   0.220E-01    0.315E-02
DAV:   5    -0.547492032264E+02    0.84554E-05   -0.59622E-05 14208   0.805E-02    0.272E-02
DAV:   6    -0.547492008231E+02    0.24033E-05   -0.47232E-05 11232   0.865E-02    0.226E-02
DAV:   7    -0.547491978647E+02    0.29584E-05   -0.17446E-05 11096   0.468E-02    0.441E-03
DAV:   8    -0.547491977609E+02    0.10376E-06   -0.11989E-06 11656   0.100E-02    0.172E-03
DAV:   9    -0.547491977779E+02   -0.16957E-07   -0.18390E-07 11072   0.386E-03    0.799E-04
DAV:  10    -0.547491977887E+02   -0.10783E-07   -0.25566E-08  7024   0.160E-03    0.180E-04
DAV:  11    -0.547491977900E+02   -0.13461E-08   -0.30384E-09  5144   0.393E-04
  23 F= -.54749198E+02 E0= -.54749794E+02  d E =-.906130E-04  mag=    -0.0000
 trial-energy change:   -0.000091  1 .order   -0.000090   -0.000126   -0.000054
 step:   1.5198(harm=  1.5786)  dis= 0.00121  next Energy=   -54.749216 (dE=-0.109E-03)
 bond charge predicted
       N       E                     dE             d eps       ncg     rms          rms(c)
DAV:   1    -0.547483697511E+02    0.82804E-03   -0.19612E-02 12880   0.403E+00    0.701E-02
DAV:   2    -0.547492316903E+02   -0.86194E-03   -0.90073E-03  9680   0.555E-01    0.586E-02
DAV:   3    -0.547492583822E+02   -0.26692E-04   -0.46473E-04 12080   0.279E-01    0.672E-02
DAV:   4    -0.547492241065E+02    0.34276E-04   -0.96237E-05 11296   0.148E-01    0.212E-02
DAV:   5    -0.547492201217E+02    0.39848E-05   -0.26279E-05 14192   0.531E-02    0.178E-02
DAV:   6    -0.547492191890E+02    0.93269E-06   -0.20582E-05 11248   0.571E-02    0.152E-02
DAV:   7    -0.547492178846E+02    0.13044E-05   -0.79156E-06 11040   0.317E-02    0.299E-03
DAV:   8    -0.547492178309E+02    0.53697E-07   -0.54114E-07 11064   0.674E-03    0.116E-03
DAV:   9    -0.547492178400E+02   -0.91204E-08   -0.82791E-08  9888   0.259E-03
  24 F= -.54749218E+02 E0= -.54749811E+02  d E =-.110663E-03  mag=    -0.0000
 curvature:  -0.79 expect dE=-0.128E-04 dE for cont linesearch -0.178E-06
 trial: gam= 0.08455 g(F)=  0.142E-04 g(S)=  0.199E-05 ort = 0.561E-05 (trialstep = 0.103E+01)
 search vector abs. value=  0.181E-04
 bond charge predicted
       N       E                     dE             d eps       ncg     rms          rms(c)
DAV:   1    -0.547488835589E+02    0.33427E-03   -0.72187E-03 12544   0.252E+00    0.733E-02
DAV:   2    -0.547492909047E+02   -0.40735E-03   -0.42749E-03 10576   0.416E-01    0.780E-02
DAV:   3    -0.547492622239E+02    0.28681E-04   -0.55717E-04 10944   0.266E-01    0.726E-02
DAV:   4    -0.547492347211E+02    0.27503E-04   -0.16651E-04 11184   0.160E-01    0.230E-02
DAV:   5    -0.547492316003E+02    0.31208E-05   -0.78374E-06 11712   0.277E-02    0.159E-02
DAV:   6    -0.547492321360E+02   -0.53577E-06   -0.11108E-05 11312   0.483E-02    0.213E-02
DAV:   7    -0.547492283041E+02    0.38319E-05   -0.94304E-06 10912   0.450E-02    0.320E-03
DAV:   8    -0.547492280018E+02    0.30227E-06   -0.13149E-06 11680   0.669E-03    0.882E-04
DAV:   9    -0.547492280162E+02   -0.14334E-07   -0.75449E-08  9344   0.236E-03    0.502E-04
DAV:  10    -0.547492280116E+02    0.45948E-08   -0.71896E-09  5744   0.690E-04
  25 F= -.54749228E+02 E0= -.54749820E+02  d E =-.101716E-04  mag=     0.0000
 trial-energy change:   -0.000010  1 .order   -0.000011   -0.000017   -0.000005
 step:   1.3988(harm=  1.3988)  dis= 0.00033  next Energy=   -54.749229 (dE=-0.117E-04)
 bond charge predicted
       N       E                     dE             d eps       ncg     rms          rms(c)
DAV:   1    -0.547491848437E+02    0.43172E-04   -0.91593E-04 12480   0.899E-01    0.261E-02
DAV:   2    -0.547492374730E+02   -0.52629E-04   -0.54325E-04 10576   0.148E-01    0.276E-02
DAV:   3    -0.547492335323E+02    0.39407E-05   -0.70523E-05 10944   0.947E-02    0.259E-02
DAV:   4    -0.547492299722E+02    0.35600E-05   -0.21039E-05 11184   0.569E-02    0.818E-03
DAV:   5    -0.547492295338E+02    0.43841E-06   -0.99139E-07 11728   0.983E-03    0.567E-03
DAV:   6    -0.547492295322E+02    0.16189E-08   -0.14105E-06 11344   0.172E-02    0.758E-03
DAV:   7    -0.547492289176E+02    0.61458E-06   -0.11998E-06 10928   0.161E-02    0.114E-03
DAV:   8    -0.547492288234E+02    0.94173E-07   -0.16709E-07 10608   0.238E-03    0.315E-04
DAV:   9    -0.547492288292E+02   -0.57953E-08   -0.82553E-09  5296   0.827E-04
  26 F= -.54749229E+02 E0= -.54749821E+02  d E =-.109892E-04  mag=    -0.0000
 curvature:  -0.76 expect dE=-0.707E-05 dE for cont linesearch -0.129E-08
 trial: gam= 0.58571 g(F)=  0.190E-05 g(S)=  0.738E-05 ort = 0.176E-06 (trialstep = 0.110E+01)
 search vector abs. value=  0.157E-04
 bond charge predicted
       N       E                     dE             d eps       ncg     rms          rms(c)
DAV:   1    -0.547493104403E+02   -0.81617E-04   -0.76010E-03 10560   0.221E+00    0.197E-01
DAV:   2    -0.547499246378E+02   -0.61420E-03   -0.77834E-03 10848   0.756E-01    0.240E-01
DAV:   3    -0.547493342760E+02    0.59036E-03   -0.30385E-03 10800   0.574E-01    0.141E-01
DAV:   4    -0.547492417788E+02    0.92497E-04   -0.67786E-04 11136   0.320E-01    0.382E-02
DAV:   5    -0.547492335443E+02    0.82345E-05   -0.33954E-05 11616   0.499E-02    0.244E-02
DAV:   6    -0.547492355211E+02   -0.19768E-05   -0.34039E-05 10992   0.852E-02    0.301E-02
DAV:   7    -0.547492301237E+02    0.53974E-05   -0.19876E-05 10848   0.626E-02    0.341E-03
DAV:   8    -0.547492303537E+02   -0.22999E-06   -0.17943E-06 10448   0.935E-03    0.119E-03
DAV:   9    -0.547492303767E+02   -0.23036E-07   -0.13613E-07 10944   0.316E-03    0.790E-04
DAV:  10    -0.547492304294E+02   -0.52711E-07   -0.26311E-08  7104   0.143E-03    0.391E-04
DAV:  11    -0.547492304443E+02   -0.14883E-07   -0.84046E-09  5072   0.914E-04    0.515E-05
DAV:  12    -0.547492304493E+02   -0.49986E-08   -0.89813E-10  4912   0.245E-04
  27 F= -.54749230E+02 E0= -.54749825E+02  d E =-.162004E-05  mag=     0.0000
 trial-energy change:   -0.000002  1 .order   -0.000002   -0.000010    0.000006
 step:   0.6456(harm=  0.6943)  dis= 0.00014  next Energy=   -54.749232 (dE=-0.293E-05)
 bond charge predicted
       N       E                     dE             d eps       ncg     rms          rms(c)
DAV:   1    -0.547492447687E+02   -0.14324E-04   -0.13123E-03 10560   0.920E-01    0.817E-02
DAV:   2    -0.547493566286E+02   -0.11186E-03   -0.13421E-03 10864   0.314E-01    0.998E-02
DAV:   3    -0.547492513940E+02    0.10523E-03   -0.52202E-04 10800   0.239E-01    0.582E-02
DAV:   4    -0.547492354864E+02    0.15908E-04   -0.11663E-04 10832   0.131E-01    0.159E-02
DAV:   5    -0.547492335094E+02    0.19771E-05   -0.58515E-06 11680   0.211E-02    0.103E-02
DAV:   6    -0.547492334326E+02    0.76783E-07   -0.58320E-06 11008   0.354E-02    0.123E-02
DAV:   7    -0.547492319923E+02    0.14403E-05   -0.33436E-06 10864   0.254E-02    0.142E-03
DAV:   8    -0.547492318689E+02    0.12344E-06   -0.30551E-07 10432   0.389E-03    0.490E-04
DAV:   9    -0.547492318503E+02    0.18521E-07   -0.21644E-08  6592   0.131E-03    0.329E-04
DAV:  10    -0.547492318282E+02    0.22090E-07   -0.53753E-09  4944   0.690E-04    0.158E-04
DAV:  11    -0.547492318218E+02    0.64720E-08   -0.16940E-09  4784   0.386E-04
  28 F= -.54749232E+02 E0= -.54749826E+02  d E =-.299253E-05  mag=     0.0000
 curvature:  -0.57 expect dE=-0.120E-05 dE for cont linesearch -0.177E-07
 trial: gam= 0.08757 g(F)=  0.187E-05 g(S)=  0.227E-06 ort = 0.697E-06 (trialstep = 0.101E+01)
 search vector abs. value=  0.234E-05
 reached required accuracy - stopping structural energy minimisation
 writing wavefunctions
