   5   5   0   0
  0.1295089E+02  0.4472238E-09  0.4472238E-09  0.6491220E-09  0.5000000E-15
  1.000000000000000E-004
  CAR 
 unknown system                          
     22.31866773    -58.54572245  301      8.85022034      1.00000000
    -58.546  0.0000E+00  0.0000E+00  0.0000E+00  0.0000E+00
    -58.276  0.0000E+00  0.0000E+00  0.0000E+00  0.0000E+00
    -58.007  0.0000E+00  0.0000E+00  0.0000E+00  0.0000E+00
    -57.737  0.0000E+00  0.0000E+00  0.0000E+00  0.0000E+00
    -57.468  0.0000E+00  0.0000E+00  0.0000E+00  0.0000E+00
    -57.198  0.0000E+00  0.0000E+00  0.0000E+00  0.0000E+00
    -56.928  0.0000E+00  0.0000E+00  0.0000E+00  0.0000E+00
    -56.659  0.0000E+00  0.0000E+00  0.0000E+00  0.0000E+00
    -56.389  0.0000E+00  0.0000E+00  0.0000E+00  0.0000E+00
    -56.120  0.0000E+00  0.0000E+00  0.0000E+00  0.0000E+00
    -55.850  0.0000E+00  0.0000E+00  0.0000E+00  0.0000E+00
    -55.581  0.0000E+00  0.0000E+00  0.0000E+00  0.0000E+00
    -55.311  0.0000E+00  0.0000E+00  0.0000E+00  0.0000E+00
    -55.042  0.0000E+00  0.0000E+00  0.0000E+00  0.0000E+00
    -54.772  0.0000E+00  0.0000E+00  0.2000E+01  0.2000E+01
    -54.503  0.0000E+00  0.0000E+00  0.6000E+01  0.6000E+01
    -54.233  0.0000E+00  0.0000E+00  0.6000E+01  0.6000E+01
    -53.963  0.0000E+00  0.0000E+00  0.6000E+01  0.6000E+01
    -53.694  0.0000E+00  0.0000E+00  0.6000E+01  0.6000E+01
    -53.424  0.0000E+00  0.0000E+00  0.6000E+01  0.6000E+01
    -53.155  0.0000E+00  0.0000E+00  0.6000E+01  0.6000E+01
    -52.885  0.0000E+00  0.0000E+00  0.6000E+01  0.6000E+01
    -52.616  0.0000E+00  0.0000E+00  0.6000E+01  0.6000E+01
    -52.346  0.0000E+00  0.0000E+00  0.6000E+01  0.6000E+01
    -52.077  0.0000E+00  0.0000E+00  0.6000E+01  0.6000E+01
    -51.807  0.0000E+00  0.0000E+00  0.6000E+01  0.6000E+01
    -51.537  0.0000E+00  0.0000E+00  0.6000E+01  0.6000E+01
    -51.268  0.0000E+00  0.0000E+00  0.6000E+01  0.6000E+01
    -50.998  0.0000E+00  0.0000E+00  0.6000E+01  0.6000E+01
    -50.729  0.0000E+00  0.0000E+00  0.6000E+01  0.6000E+01
    -50.459  0.0000E+00  0.0000E+00  0.6000E+01  0.6000E+01
    -50.190  0.0000E+00  0.0000E+00  0.6000E+01  0.6000E+01
    -49.920  0.0000E+00  0.0000E+00  0.6000E+01  0.6000E+01
    -49.651  0.0000E+00  0.0000E+00  0.6000E+01  0.6000E+01
    -49.381  0.0000E+00  0.0000E+00  0.6000E+01  0.6000E+01
    -49.112  0.0000E+00  0.0000E+00  0.6000E+01  0.6000E+01
    -48.842  0.0000E+00  0.0000E+00  0.6000E+01  0.6000E+01
    -48.572  0.0000E+00  0.0000E+00  0.6000E+01  0.6000E+01
    -48.303  0.0000E+00  0.0000E+00  0.6000E+01  0.6000E+01
    -48.033  0.0000E+00  0.0000E+00  0.6000E+01  0.6000E+01
    -47.764  0.0000E+00  0.0000E+00  0.6000E+01  0.6000E+01
    -47.494  0.0000E+00  0.0000E+00  0.6000E+01  0.6000E+01
    -47.225  0.0000E+00  0.0000E+00  0.6000E+01  0.6000E+01
    -46.955  0.0000E+00  0.0000E+00  0.6000E+01  0.6000E+01
    -46.686  0.0000E+00  0.0000E+00  0.6000E+01  0.6000E+01
    -46.416  0.0000E+00  0.0000E+00  0.6000E+01  0.6000E+01
    -46.147  0.0000E+00  0.0000E+00  0.6000E+01  0.6000E+01
    -45.877  0.0000E+00  0.0000E+00  0.6000E+01  0.6000E+01
    -45.607  0.0000E+00  0.0000E+00  0.6000E+01  0.6000E+01
    -45.338  0.0000E+00  0.0000E+00  0.6000E+01  0.6000E+01
    -45.068  0.0000E+00  0.0000E+00  0.6000E+01  0.6000E+01
    -44.799  0.0000E+00  0.0000E+00  0.6000E+01  0.6000E+01
    -44.529  0.0000E+00  0.0000E+00  0.6000E+01  0.6000E+01
    -44.260  0.0000E+00  0.0000E+00  0.6000E+01  0.6000E+01
    -43.990  0.0000E+00  0.0000E+00  0.6000E+01  0.6000E+01
    -43.721  0.0000E+00  0.0000E+00  0.6000E+01  0.6000E+01
    -43.451  0.0000E+00  0.0000E+00  0.6000E+01  0.6000E+01
    -43.181  0.0000E+00  0.0000E+00  0.6000E+01  0.6000E+01
    -42.912  0.0000E+00  0.0000E+00  0.6000E+01  0.6000E+01
    -42.642  0.0000E+00  0.0000E+00  0.6000E+01  0.6000E+01
    -42.373  0.0000E+00  0.0000E+00  0.6000E+01  0.6000E+01
    -42.103  0.0000E+00  0.0000E+00  0.6000E+01  0.6000E+01
    -41.834  0.0000E+00  0.0000E+00  0.6000E+01  0.6000E+01
    -41.564  0.0000E+00  0.0000E+00  0.6000E+01  0.6000E+01
    -41.295  0.0000E+00  0.0000E+00  0.6000E+01  0.6000E+01
    -41.025  0.0000E+00  0.0000E+00  0.6000E+01  0.6000E+01
    -40.756  0.0000E+00  0.0000E+00  0.6000E+01  0.6000E+01
    -40.486  0.0000E+00  0.0000E+00  0.6000E+01  0.6000E+01
    -40.216  0.0000E+00  0.0000E+00  0.6000E+01  0.6000E+01
    -39.947  0.0000E+00  0.0000E+00  0.6000E+01  0.6000E+01
    -39.677  0.0000E+00  0.0000E+00  0.6000E+01  0.6000E+01
    -39.408  0.0000E+00  0.0000E+00  0.6000E+01  0.6000E+01
    -39.138  0.0000E+00  0.0000E+00  0.6000E+01  0.6000E+01
    -38.869  0.0000E+00  0.0000E+00  0.6000E+01  0.6000E+01
    -38.599  0.0000E+00  0.0000E+00  0.6000E+01  0.6000E+01
    -38.330  0.0000E+00  0.0000E+00  0.6000E+01  0.6000E+01
    -38.060  0.0000E+00  0.0000E+00  0.6000E+01  0.6000E+01
    -37.791  0.0000E+00  0.0000E+00  0.6000E+01  0.6000E+01
    -37.521  0.0000E+00  0.0000E+00  0.6000E+01  0.6000E+01
    -37.251  0.0000E+00  0.0000E+00  0.6000E+01  0.6000E+01
    -36.982  0.0000E+00  0.0000E+00  0.6000E+01  0.6000E+01
    -36.712  0.0000E+00  0.0000E+00  0.6000E+01  0.6000E+01
    -36.443  0.0000E+00  0.0000E+00  0.6000E+01  0.6000E+01
    -36.173  0.0000E+00  0.0000E+00  0.6000E+01  0.6000E+01
    -35.904  0.0000E+00  0.0000E+00  0.6000E+01  0.6000E+01
    -35.634  0.0000E+00  0.0000E+00  0.6000E+01  0.6000E+01
    -35.365  0.0000E+00  0.0000E+00  0.6000E+01  0.6000E+01
    -35.095  0.0000E+00  0.0000E+00  0.6000E+01  0.6000E+01
    -34.826  0.0000E+00  0.0000E+00  0.6000E+01  0.6000E+01
    -34.556  0.0000E+00  0.0000E+00  0.6000E+01  0.6000E+01
    -34.286  0.0000E+00  0.0000E+00  0.6000E+01  0.6000E+01
    -34.017  0.0000E+00  0.0000E+00  0.6000E+01  0.6000E+01
    -33.747  0.0000E+00  0.0000E+00  0.6000E+01  0.6000E+01
    -33.478  0.0000E+00  0.0000E+00  0.6000E+01  0.6000E+01
    -33.208  0.0000E+00  0.0000E+00  0.6000E+01  0.6000E+01
    -32.939  0.0000E+00  0.0000E+00  0.6000E+01  0.6000E+01
    -32.669  0.0000E+00  0.0000E+00  0.6000E+01  0.6000E+01
    -32.400  0.0000E+00  0.0000E+00  0.6000E+01  0.6000E+01
    -32.130  0.0000E+00  0.0000E+00  0.6000E+01  0.6000E+01
    -31.860  0.0000E+00  0.0000E+00  0.6000E+01  0.6000E+01
    -31.591  0.0000E+00  0.0000E+00  0.6000E+01  0.6000E+01
    -31.321  0.0000E+00  0.0000E+00  0.6000E+01  0.6000E+01
    -31.052  0.0000E+00  0.0000E+00  0.6000E+01  0.6000E+01
    -30.782  0.0000E+00  0.0000E+00  0.6000E+01  0.6000E+01
    -30.513  0.0000E+00  0.0000E+00  0.6000E+01  0.6000E+01
    -30.243  0.0000E+00  0.0000E+00  0.6000E+01  0.6000E+01
    -29.974  0.0000E+00  0.0000E+00  0.6000E+01  0.6000E+01
    -29.704  0.0000E+00  0.0000E+00  0.6000E+01  0.6000E+01
    -29.435  0.0000E+00  0.0000E+00  0.6000E+01  0.6000E+01
    -29.165  0.0000E+00  0.0000E+00  0.6000E+01  0.6000E+01
    -28.895  0.0000E+00  0.0000E+00  0.6000E+01  0.6000E+01
    -28.626  0.0000E+00  0.0000E+00  0.6000E+01  0.6000E+01
    -28.356  0.0000E+00  0.0000E+00  0.6000E+01  0.6000E+01
    -28.087  0.0000E+00  0.0000E+00  0.6000E+01  0.6000E+01
    -27.817  0.0000E+00  0.0000E+00  0.6000E+01  0.6000E+01
    -27.548  0.0000E+00  0.0000E+00  0.6000E+01  0.6000E+01
    -27.278  0.0000E+00  0.0000E+00  0.6000E+01  0.6000E+01
    -27.009  0.0000E+00  0.0000E+00  0.6000E+01  0.6000E+01
    -26.739  0.0000E+00  0.0000E+00  0.6000E+01  0.6000E+01
    -26.470  0.0000E+00  0.0000E+00  0.6000E+01  0.6000E+01
    -26.200  0.0000E+00  0.0000E+00  0.6000E+01  0.6000E+01
    -25.930  0.0000E+00  0.0000E+00  0.6000E+01  0.6000E+01
    -25.661  0.0000E+00  0.0000E+00  0.6000E+01  0.6000E+01
    -25.391  0.0000E+00  0.0000E+00  0.6000E+01  0.6000E+01
    -25.122  0.0000E+00  0.0000E+00  0.6000E+01  0.6000E+01
    -24.852  0.0000E+00  0.0000E+00  0.6000E+01  0.6000E+01
    -24.583  0.0000E+00  0.0000E+00  0.6000E+01  0.6000E+01
    -24.313  0.0000E+00  0.0000E+00  0.6000E+01  0.6000E+01
    -24.044  0.0000E+00  0.0000E+00  0.6000E+01  0.6000E+01
    -23.774  0.0000E+00  0.0000E+00  0.6000E+01  0.6000E+01
    -23.504  0.0000E+00  0.0000E+00  0.6000E+01  0.6000E+01
    -23.235  0.0000E+00  0.0000E+00  0.6000E+01  0.6000E+01
    -22.965  0.0000E+00  0.0000E+00  0.6000E+01  0.6000E+01
    -22.696  0.0000E+00  0.0000E+00  0.6000E+01  0.6000E+01
    -22.426  0.0000E+00  0.0000E+00  0.6000E+01  0.6000E+01
    -22.157  0.0000E+00  0.0000E+00  0.6000E+01  0.6000E+01
    -21.887  0.0000E+00  0.0000E+00  0.6000E+01  0.6000E+01
    -21.618  0.0000E+00  0.0000E+00  0.6000E+01  0.6000E+01
    -21.348  0.0000E+00  0.0000E+00  0.6000E+01  0.6000E+01
    -21.079  0.0000E+00  0.0000E+00  0.6000E+01  0.6000E+01
    -20.809  0.0000E+00  0.0000E+00  0.6000E+01  0.6000E+01
    -20.539  0.0000E+00  0.0000E+00  0.6000E+01  0.6000E+01
    -20.270  0.0000E+00  0.0000E+00  0.6000E+01  0.6000E+01
    -20.000  0.0000E+00  0.0000E+00  0.6000E+01  0.6000E+01
    -19.731  0.0000E+00  0.0000E+00  0.6000E+01  0.6000E+01
    -19.461  0.0000E+00  0.0000E+00  0.6000E+01  0.6000E+01
    -19.192  0.0000E+00  0.0000E+00  0.6000E+01  0.6000E+01
    -18.922  0.0000E+00  0.0000E+00  0.6000E+01  0.6000E+01
    -18.653  0.0000E+00  0.0000E+00  0.6000E+01  0.6000E+01
    -18.383  0.0000E+00  0.0000E+00  0.6000E+01  0.6000E+01
    -18.114  0.0000E+00  0.0000E+00  0.6000E+01  0.6000E+01
    -17.844  0.0000E+00  0.0000E+00  0.6000E+01  0.6000E+01
    -17.574  0.0000E+00  0.0000E+00  0.6000E+01  0.6000E+01
    -17.305  0.0000E+00  0.0000E+00  0.6000E+01  0.6000E+01
    -17.035  0.0000E+00  0.0000E+00  0.6000E+01  0.6000E+01
    -16.766  0.0000E+00  0.0000E+00  0.6000E+01  0.6000E+01
    -16.496  0.0000E+00  0.0000E+00  0.6000E+01  0.6000E+01
    -16.227  0.0000E+00  0.0000E+00  0.6000E+01  0.6000E+01
    -15.957  0.0000E+00  0.0000E+00  0.6000E+01  0.6000E+01
    -15.688  0.0000E+00  0.0000E+00  0.6000E+01  0.6000E+01
    -15.418  0.0000E+00  0.0000E+00  0.6000E+01  0.6000E+01
    -15.148  0.0000E+00  0.0000E+00  0.6000E+01  0.6000E+01
    -14.879  0.0000E+00  0.0000E+00  0.6000E+01  0.6000E+01
    -14.609  0.0000E+00  0.0000E+00  0.6000E+01  0.6000E+01
    -14.340  0.0000E+00  0.0000E+00  0.6000E+01  0.6000E+01
    -14.070  0.0000E+00  0.0000E+00  0.6000E+01  0.6000E+01
    -13.801  0.0000E+00  0.0000E+00  0.6000E+01  0.6000E+01
    -13.531  0.0000E+00  0.0000E+00  0.6000E+01  0.6000E+01
    -13.262  0.0000E+00  0.0000E+00  0.6000E+01  0.6000E+01
    -12.992  0.0000E+00  0.0000E+00  0.6000E+01  0.6000E+01
    -12.723  0.0000E+00  0.0000E+00  0.6000E+01  0.6000E+01
    -12.453  0.0000E+00  0.0000E+00  0.6000E+01  0.6000E+01
    -12.183  0.0000E+00  0.0000E+00  0.6000E+01  0.6000E+01
    -11.914  0.0000E+00  0.0000E+00  0.6000E+01  0.6000E+01
    -11.644  0.0000E+00  0.0000E+00  0.6000E+01  0.6000E+01
    -11.375  0.0000E+00  0.0000E+00  0.6000E+01  0.6000E+01
    -11.105  0.0000E+00  0.0000E+00  0.6000E+01  0.6000E+01
    -10.836  0.0000E+00  0.0000E+00  0.6000E+01  0.6000E+01
    -10.566  0.0000E+00  0.0000E+00  0.6000E+01  0.6000E+01
    -10.297  0.0000E+00  0.0000E+00  0.6000E+01  0.6000E+01
    -10.027  0.0000E+00  0.0000E+00  0.6000E+01  0.6000E+01
     -9.758  0.0000E+00  0.0000E+00  0.6000E+01  0.6000E+01
     -9.488  0.0000E+00  0.0000E+00  0.6000E+01  0.6000E+01
     -9.218  0.0000E+00  0.0000E+00  0.6000E+01  0.6000E+01
     -8.949  0.0000E+00  0.0000E+00  0.6000E+01  0.6000E+01
     -8.679  0.0000E+00  0.0000E+00  0.6000E+01  0.6000E+01
     -8.410  0.0000E+00  0.0000E+00  0.6000E+01  0.6000E+01
     -8.140  0.0000E+00  0.0000E+00  0.6000E+01  0.6000E+01
     -7.871  0.0000E+00  0.0000E+00  0.6000E+01  0.6000E+01
     -7.601  0.0000E+00  0.0000E+00  0.6000E+01  0.6000E+01
     -7.332  0.0000E+00  0.0000E+00  0.6000E+01  0.6000E+01
     -7.062  0.0000E+00  0.0000E+00  0.6000E+01  0.6000E+01
     -6.793  0.0000E+00  0.0000E+00  0.6000E+01  0.6000E+01
     -6.523  0.0000E+00  0.0000E+00  0.6000E+01  0.6000E+01
     -6.253  0.0000E+00  0.0000E+00  0.6000E+01  0.6000E+01
     -5.984  0.0000E+00  0.0000E+00  0.6000E+01  0.6000E+01
     -5.714  0.0000E+00  0.0000E+00  0.6000E+01  0.6000E+01
     -5.445  0.0000E+00  0.0000E+00  0.6000E+01  0.6000E+01
     -5.175  0.0000E+00  0.0000E+00  0.6000E+01  0.6000E+01
     -4.906  0.0000E+00  0.0000E+00  0.6000E+01  0.6000E+01
     -4.636  0.0000E+00  0.0000E+00  0.6000E+01  0.6000E+01
     -4.367  0.0000E+00  0.0000E+00  0.6000E+01  0.6000E+01
     -4.097  0.0000E+00  0.0000E+00  0.6000E+01  0.6000E+01
     -3.827  0.0000E+00  0.0000E+00  0.6000E+01  0.6000E+01
     -3.558  0.0000E+00  0.0000E+00  0.6000E+01  0.6000E+01
     -3.288  0.0000E+00  0.0000E+00  0.6000E+01  0.6000E+01
     -3.019  0.0000E+00  0.0000E+00  0.6000E+01  0.6000E+01
     -2.749  0.0000E+00  0.0000E+00  0.6000E+01  0.6000E+01
     -2.480  0.0000E+00  0.0000E+00  0.6000E+01  0.6000E+01
     -2.210  0.5269E-01  0.5269E-01  0.6003E+01  0.6003E+01
     -1.941  0.1473E+00  0.1473E+00  0.6031E+01  0.6031E+01
     -1.671  0.2013E+00  0.2013E+00  0.6077E+01  0.6077E+01
     -1.402  0.2530E+00  0.2530E+00  0.6139E+01  0.6139E+01
     -1.132  0.2693E+00  0.2693E+00  0.6210E+01  0.6210E+01
     -0.862  0.2914E+00  0.2914E+00  0.6284E+01  0.6284E+01
     -0.593  0.2952E+00  0.2952E+00  0.6365E+01  0.6365E+01
     -0.323  0.3316E+00  0.3316E+00  0.6450E+01  0.6450E+01
     -0.054  0.3199E+00  0.3199E+00  0.6537E+01  0.6537E+01
      0.216  0.3485E+00  0.3485E+00  0.6626E+01  0.6626E+01
      0.485  0.4807E+00  0.4807E+00  0.6731E+01  0.6731E+01
      0.755  0.4516E+00  0.4516E+00  0.6858E+01  0.6858E+01
      1.024  0.4418E+00  0.4418E+00  0.6978E+01  0.6978E+01
      1.294  0.4404E+00  0.4404E+00  0.7097E+01  0.7097E+01
      1.563  0.5626E+00  0.5626E+00  0.7230E+01  0.7230E+01
      1.833  0.7027E+00  0.7027E+00  0.7402E+01  0.7402E+01
      2.103  0.5541E+00  0.5541E+00  0.7572E+01  0.7572E+01
      2.372  0.4399E+00  0.4399E+00  0.7704E+01  0.7704E+01
      2.642  0.4478E+00  0.4478E+00  0.7821E+01  0.7821E+01
      2.911  0.5506E+00  0.5506E+00  0.7955E+01  0.7955E+01
      3.181  0.6460E+00  0.6460E+00  0.8122E+01  0.8122E+01
      3.450  0.7324E+00  0.7324E+00  0.8313E+01  0.8313E+01
      3.720  0.8590E+00  0.8590E+00  0.8524E+01  0.8524E+01
      3.989  0.9992E+00  0.9992E+00  0.8766E+01  0.8766E+01
      4.259  0.8400E+00  0.8400E+00  0.9018E+01  0.9018E+01
      4.529  0.8571E+00  0.8571E+00  0.9240E+01  0.9240E+01
      4.798  0.1376E+01  0.1376E+01  0.9517E+01  0.9517E+01
      5.068  0.1025E+01  0.1025E+01  0.9882E+01  0.9882E+01
      5.337  0.1450E+01  0.1450E+01  0.1016E+02  0.1016E+02
      5.607  0.1673E+01  0.1673E+01  0.1063E+02  0.1063E+02
      5.876  0.2585E+01  0.2585E+01  0.1125E+02  0.1125E+02
      6.146  0.3637E+01  0.3637E+01  0.1216E+02  0.1216E+02
      6.415  0.5553E+01  0.5553E+01  0.1333E+02  0.1333E+02
      6.685  0.4637E+01  0.4637E+01  0.1476E+02  0.1476E+02
      6.954  0.6290E+01  0.6290E+01  0.1623E+02  0.1623E+02
      7.224  0.2497E+01  0.2497E+01  0.1723E+02  0.1723E+02
      7.494  0.1421E+01  0.1421E+01  0.1834E+02  0.1834E+02
      7.763  0.2133E+01  0.2133E+01  0.1904E+02  0.1904E+02
      8.033  0.1241E+01  0.1241E+01  0.1949E+02  0.1949E+02
      8.302  0.1691E+01  0.1691E+01  0.1987E+02  0.1987E+02
      8.572  0.1061E+01  0.1061E+01  0.2023E+02  0.2023E+02
      8.841  0.8786E+00  0.8786E+00  0.2049E+02  0.2049E+02
      9.111  0.7930E+00  0.7930E+00  0.2072E+02  0.2072E+02
      9.380  0.7730E+00  0.7730E+00  0.2091E+02  0.2091E+02
      9.650  0.9607E+00  0.9607E+00  0.2115E+02  0.2115E+02
      9.919  0.7484E+00  0.7484E+00  0.2137E+02  0.2137E+02
     10.189  0.1244E+01  0.1244E+01  0.2164E+02  0.2164E+02
     10.459  0.9490E+00  0.9490E+00  0.2195E+02  0.2195E+02
     10.728  0.7594E+00  0.7594E+00  0.2217E+02  0.2217E+02
     10.998  0.6428E+00  0.6428E+00  0.2236E+02  0.2236E+02
     11.267  0.8669E+00  0.8669E+00  0.2256E+02  0.2256E+02
     11.537  0.1018E+01  0.1018E+01  0.2282E+02  0.2282E+02
     11.806  0.1043E+01  0.1043E+01  0.2312E+02  0.2312E+02
     12.076  0.9901E+00  0.9901E+00  0.2339E+02  0.2339E+02
     12.345  0.1017E+01  0.1017E+01  0.2366E+02  0.2366E+02
     12.615  0.7248E+00  0.7248E+00  0.2389E+02  0.2389E+02
     12.884  0.9635E+00  0.9635E+00  0.2411E+02  0.2411E+02
     13.154  0.1126E+01  0.1126E+01  0.2439E+02  0.2439E+02
     13.424  0.8780E+00  0.8780E+00  0.2466E+02  0.2466E+02
     13.693  0.8956E+00  0.8956E+00  0.2489E+02  0.2489E+02
     13.963  0.1014E+01  0.1014E+01  0.2516E+02  0.2516E+02
     14.232  0.1007E+01  0.1007E+01  0.2543E+02  0.2543E+02
     14.502  0.1078E+01  0.1078E+01  0.2571E+02  0.2571E+02
     14.771  0.9703E+00  0.9703E+00  0.2599E+02  0.2599E+02
     15.041  0.9434E+00  0.9434E+00  0.2624E+02  0.2624E+02
     15.310  0.8980E+00  0.8980E+00  0.2649E+02  0.2649E+02
     15.580  0.9204E+00  0.9204E+00  0.2674E+02  0.2674E+02
     15.850  0.8336E+00  0.8336E+00  0.2698E+02  0.2698E+02
     16.119  0.6230E+00  0.6230E+00  0.2717E+02  0.2717E+02
     16.389  0.5388E+00  0.5388E+00  0.2732E+02  0.2732E+02
     16.658  0.4627E+00  0.4627E+00  0.2746E+02  0.2746E+02
     16.928  0.3969E+00  0.3969E+00  0.2758E+02  0.2758E+02
     17.197  0.4112E+00  0.4112E+00  0.2768E+02  0.2768E+02
     17.467  0.3542E+00  0.3542E+00  0.2779E+02  0.2779E+02
     17.736  0.3443E+00  0.3443E+00  0.2788E+02  0.2788E+02
     18.006  0.2150E+00  0.2150E+00  0.2797E+02  0.2797E+02
     18.275  0.3433E-01  0.3433E-01  0.2800E+02  0.2800E+02
     18.545  0.4362E-02  0.4362E-02  0.2800E+02  0.2800E+02
     18.815  0.0000E+00  0.0000E+00  0.2800E+02  0.2800E+02
     19.084  0.0000E+00  0.0000E+00  0.2800E+02  0.2800E+02
     19.354  0.0000E+00  0.0000E+00  0.2800E+02  0.2800E+02
     19.623  0.0000E+00  0.0000E+00  0.2800E+02  0.2800E+02
     19.893  0.0000E+00  0.0000E+00  0.2800E+02  0.2800E+02
     20.162  0.0000E+00  0.0000E+00  0.2800E+02  0.2800E+02
     20.432  0.0000E+00  0.0000E+00  0.2800E+02  0.2800E+02
     20.701  0.0000E+00  0.0000E+00  0.2800E+02  0.2800E+02
     20.971  0.0000E+00  0.0000E+00  0.2800E+02  0.2800E+02
     21.240  0.0000E+00  0.0000E+00  0.2800E+02  0.2800E+02
     21.510  0.0000E+00  0.0000E+00  0.2800E+02  0.2800E+02
     21.780  0.0000E+00  0.0000E+00  0.2800E+02  0.2800E+02
     22.049  0.0000E+00  0.0000E+00  0.2800E+02  0.2800E+02
     22.319  0.0000E+00  0.0000E+00  0.2800E+02  0.2800E+02
