 running on   24 total cores
 distrk:  each k-point on   24 cores,    1 groups
 distr:  one band on    6 cores,    4 groups
 using from now: INCAR     
 vasp.5.4.4.18Apr17-6-g9f103f2a35 (build Jan 03 2018 06:08:52) complex          
  
 POSCAR found :  2 types and       5 ions
 scaLAPACK will be used
 WARNING: for PREC=h ENMAX is automatically increase by 25 %
        this was not the case for versions prior to vasp.4.4
 WARNING: for PREC=h ENMAX is automatically increase by 25 %
        this was not the case for versions prior to vasp.4.4
 LDA part: xc-table for Pade appr. of Perdew
 POSCAR, INCAR and KPOINTS ok, starting setup
 FFT: planning ...
 WAVECAR not read
 entering main loop
       N       E                     dE             d eps       ncg     rms          rms(c)
DAV:   1     0.362188274576E+03    0.36219E+03   -0.23892E+04  9976   0.153E+03
DAV:   2    -0.110840708821E+02   -0.37327E+03   -0.36152E+03  8172   0.458E+02
DAV:   3    -0.267387188767E+02   -0.15655E+02   -0.15155E+02  9628   0.107E+02
DAV:   4    -0.271108174074E+02   -0.37210E+00   -0.37084E+00  9224   0.160E+01
DAV:   5    -0.271211078456E+02   -0.10290E-01   -0.10289E-01  9324   0.292E+00    0.240E+01
DAV:   6    -0.409898218025E+02   -0.13869E+02   -0.14829E+02  8980   0.165E+02    0.329E+01
DAV:   7    -0.238271325693E+02    0.17163E+02   -0.43140E+01  9164   0.105E+02    0.709E+00
DAV:   8    -0.234986400479E+02    0.32849E+00   -0.55540E+00 11088   0.238E+01    0.304E+00
DAV:   9    -0.234362274306E+02    0.62413E-01   -0.69468E-01  9900   0.103E+01    0.133E+00
DAV:  10    -0.234234260177E+02    0.12801E-01   -0.35582E-02  9804   0.235E+00    0.495E-01
DAV:  11    -0.234213841769E+02    0.20418E-02   -0.20019E-02 11276   0.153E+00    0.272E-01
DAV:  12    -0.234211221039E+02    0.26207E-03   -0.15932E-03  9520   0.390E-01    0.152E-01
DAV:  13    -0.234208530364E+02    0.26907E-03   -0.69676E-04 12044   0.259E-01    0.359E-02
DAV:  14    -0.234208457584E+02    0.72780E-05   -0.68636E-05 11308   0.724E-02    0.649E-03
DAV:  15    -0.234208458872E+02   -0.12882E-06   -0.53412E-06 10980   0.235E-02    0.823E-03
DAV:  16    -0.234208449174E+02    0.96983E-06   -0.20988E-06 10140   0.172E-02    0.142E-03
DAV:  17    -0.234208447790E+02    0.13838E-06   -0.14201E-07 11212   0.295E-03    0.538E-04
DAV:  18    -0.234208447673E+02    0.11768E-07   -0.69335E-09  4636   0.988E-04    0.174E-04
DAV:  19    -0.234208447595E+02    0.78071E-08   -0.16116E-09  4488   0.379E-04
   1 F= -.23420845E+02 E0= -.23420998E+02  d E =-.234208E+02  mag=     0.0000
 curvature:   0.00 expect dE= 0.000E+00 dE for cont linesearch  0.000E+00
 trial: gam= 0.00000 g(F)=  0.178E+00 g(S)=  0.469E+01 ort = 0.000E+00 (trialstep = 0.100E+01)
 search vector abs. value=  0.487E+01
 bond charge predicted
       N       E                     dE             d eps       ncg     rms          rms(c)
DAV:   1    -0.149650423067E+03   -0.12623E+03   -0.20305E+03  8092   0.724E+02    0.823E+01
DAV:   2    -0.507438074412E+02    0.98907E+02   -0.70311E+02  9380   0.257E+02    0.446E+01
DAV:   3    -0.491088405026E+02    0.16350E+01   -0.28306E+02  8952   0.188E+02    0.404E+01
DAV:   4    -0.250147189103E+02    0.24094E+02   -0.82138E+01  9480   0.119E+02    0.407E+00
DAV:   5    -0.251487398857E+02   -0.13402E+00   -0.84471E+00  8872   0.331E+01    0.105E+01
DAV:   6    -0.240823748550E+02    0.10664E+01   -0.42063E+00 10964   0.222E+01    0.286E+00
DAV:   7    -0.239943474242E+02    0.88027E-01   -0.25554E-01  9504   0.412E+00    0.124E+00
DAV:   8    -0.239786059317E+02    0.15741E-01   -0.56554E-02 10696   0.237E+00    0.124E-01
DAV:   9    -0.239786346683E+02   -0.28737E-04   -0.22019E-03  8672   0.411E-01    0.502E-02
DAV:  10    -0.239786622149E+02   -0.27547E-04   -0.31028E-04 10188   0.217E-01    0.429E-02
DAV:  11    -0.239786473659E+02    0.14849E-04   -0.13630E-04 10196   0.135E-01    0.187E-02
DAV:  12    -0.239786444625E+02    0.29034E-05   -0.10494E-05 10256   0.315E-02    0.979E-04
DAV:  13    -0.239786447154E+02   -0.25295E-06   -0.79069E-07 12036   0.692E-03    0.305E-03
DAV:  14    -0.239786446132E+02    0.10218E-06   -0.11522E-07 10116   0.346E-03    0.136E-03
DAV:  15    -0.239786445569E+02    0.56394E-07   -0.79512E-08  9132   0.257E-03    0.162E-04
DAV:  16    -0.239786445557E+02    0.11523E-08   -0.32902E-09  4648   0.586E-04
   2 F= -.23978645E+02 E0= -.23978833E+02  d E =-.557800E+00  mag=     0.0000
 trial-energy change:   -0.557800  1 .order   -0.829401   -4.866196    3.207395
 step:   0.5528(harm=  0.6027)  dis= 0.02064  next Energy=   -24.720051 (dE=-0.130E+01)
 bond charge predicted
       N       E                     dE             d eps       ncg     rms          rms(c)
DAV:   1    -0.752525869851E+02   -0.51274E+02   -0.48602E+02  9188   0.288E+02    0.774E+01
DAV:   2    -0.145440730800E+03   -0.70188E+02   -0.14418E+03  8872   0.453E+02    0.641E+01
DAV:   3    -0.407983241901E+02    0.10464E+03   -0.36110E+02  8980   0.194E+02    0.256E+01
DAV:   4    -0.359302910201E+02    0.48680E+01   -0.77374E+00  8684   0.282E+01    0.222E+01
DAV:   5    -0.261739398687E+02    0.97564E+01   -0.12473E+01  9876   0.474E+01    0.808E+00
DAV:   6    -0.277176103492E+02   -0.15437E+01   -0.27812E+01 11260   0.489E+01    0.189E+01
DAV:   7    -0.253517103595E+02    0.23659E+01   -0.33588E+00 10528   0.180E+01    0.928E+00
DAV:   8    -0.247366791124E+02    0.61503E+00   -0.10398E+00 11888   0.944E+00    0.348E+00
DAV:   9    -0.246787042685E+02    0.57975E-01   -0.65566E-02 11284   0.207E+00    0.224E+00
DAV:  10    -0.246410754393E+02    0.37629E-01   -0.26269E-01 10360   0.542E+00    0.816E-01
DAV:  11    -0.246363084934E+02    0.47669E-02   -0.52545E-02 10044   0.263E+00    0.429E-01
DAV:  12    -0.246347004548E+02    0.16080E-02   -0.57818E-03  9328   0.916E-01    0.224E-02
DAV:  13    -0.246347281812E+02   -0.27726E-04   -0.24827E-04  9852   0.165E-01    0.492E-02
DAV:  14    -0.246347085176E+02    0.19664E-04   -0.55239E-05 10012   0.861E-02    0.758E-03
DAV:  15    -0.246347090752E+02   -0.55755E-06   -0.76870E-06 12356   0.225E-02    0.520E-03
DAV:  16    -0.246347087840E+02    0.29116E-06   -0.10328E-06  9744   0.111E-02    0.370E-04
DAV:  17    -0.246347088442E+02   -0.60234E-07   -0.22917E-08  7884   0.109E-03    0.311E-04
DAV:  18    -0.246347088632E+02   -0.18926E-07   -0.10296E-09  4492   0.296E-04    0.384E-04
DAV:  19    -0.246347088633E+02   -0.11914E-09   -0.24531E-09  4356   0.491E-04
   3 F= -.24634709E+02 E0= -.24634577E+02  d E =-.121386E+01  mag=    -0.0000
 curvature:  -0.30 expect dE=-0.295E-01 dE for cont linesearch -0.876E-04
 ZBRENT: interpolating
 opt :   0.5486  next Energy=   -24.634790 (dE=-0.121E+01)
 bond charge predicted
       N       E                     dE             d eps       ncg     rms          rms(c)
DAV:   1    -0.246396505190E+02   -0.49417E-02   -0.40189E-02  8724   0.294E+00    0.787E-01
DAV:   2    -0.246622938013E+02   -0.22643E-01   -0.19020E-01  9464   0.516E+00    0.165E+00
DAV:   3    -0.246347997064E+02    0.27494E-01   -0.98316E-02  9388   0.382E+00    0.793E-02
DAV:   4    -0.246348591274E+02   -0.59421E-04   -0.16781E-03  8400   0.251E-01    0.698E-02
DAV:   5    -0.246348223500E+02    0.36777E-04   -0.13344E-04 10576   0.131E-01    0.743E-03
DAV:   6    -0.246348214558E+02    0.89422E-06   -0.35097E-06  8636   0.172E-02    0.120E-03
DAV:   7    -0.246348213050E+02    0.15076E-06   -0.14560E-07 10280   0.300E-03    0.529E-04
DAV:   8    -0.246348212091E+02    0.95956E-07   -0.98493E-09  5472   0.913E-04    0.379E-04
DAV:   9    -0.246348211819E+02    0.27119E-07   -0.39414E-09  4652   0.712E-04    0.570E-05
DAV:  10    -0.246348211740E+02    0.79735E-08   -0.93873E-10  4292   0.248E-04
   4 F= -.24634821E+02 E0= -.24634685E+02  d E =-.121398E+01  mag=     0.0000
 curvature:  -0.27 expect dE=-0.268E-01 dE for cont linesearch -0.279E-05
 trial: gam= 0.02154 g(F)=  0.192E-01 g(S)=  0.786E-01 ort =-0.704E-02 (trialstep = 0.910E+00)
 search vector abs. value=  0.997E-01
 bond charge predicted
       N       E                     dE             d eps       ncg     rms          rms(c)
DAV:   1    -0.247837078958E+02   -0.14889E+00   -0.14198E+01  9488   0.116E+02    0.752E+00
DAV:   2    -0.263193919477E+02   -0.15357E+01   -0.16020E+01  9296   0.476E+01    0.117E+01
DAV:   3    -0.247384377134E+02    0.15810E+01   -0.54942E+00  9016   0.325E+01    0.189E+00
DAV:   4    -0.246974105167E+02    0.41027E-01   -0.21141E-01  9024   0.330E+00    0.818E-01
DAV:   5    -0.246918199342E+02    0.55906E-02   -0.31627E-02  9488   0.198E+00    0.169E-01
DAV:   6    -0.246916048662E+02    0.21507E-03   -0.25286E-03  9640   0.607E-01    0.830E-02
DAV:   7    -0.246915809908E+02    0.23875E-04   -0.31022E-04  9736   0.220E-01    0.249E-02
DAV:   8    -0.246915807866E+02    0.20418E-06   -0.29273E-05  9760   0.622E-02    0.404E-03
DAV:   9    -0.246915797221E+02    0.10645E-05   -0.18879E-06 10840   0.167E-02    0.128E-03
DAV:  10    -0.246915796634E+02    0.58672E-07   -0.15861E-07 10392   0.461E-03    0.781E-04
DAV:  11    -0.246915796028E+02    0.60606E-07   -0.21358E-08  5088   0.180E-03    0.640E-05
DAV:  12    -0.246915796037E+02   -0.88676E-09   -0.34635E-09  4580   0.661E-04
   5 F= -.24691580E+02 E0= -.24691472E+02  d E =-.567584E-01  mag=     0.0000
 trial-energy change:   -0.056758  1 .order   -0.056143   -0.088818   -0.023467
 step:   1.2135(harm=  1.2364)  dis= 0.01624  next Energy=   -24.695521 (dE=-0.607E-01)
 bond charge predicted
       N       E                     dE             d eps       ncg     rms          rms(c)
DAV:   1    -0.247076626424E+02   -0.16083E-01   -0.16397E+00  9736   0.388E+01    0.242E+00
DAV:   2    -0.248694515146E+02   -0.16179E+00   -0.16572E+00  9336   0.156E+01    0.400E+00
DAV:   3    -0.247026548939E+02    0.16680E+00   -0.64242E-01  9052   0.105E+01    0.734E-01
DAV:   4    -0.246958758526E+02    0.67790E-02   -0.24331E-02  8784   0.139E+00    0.136E-01
DAV:   5    -0.246957909065E+02    0.84946E-04   -0.18647E-03  9232   0.480E-01    0.379E-02
DAV:   6    -0.246957783690E+02    0.12538E-04   -0.86859E-05  9924   0.112E-01    0.219E-02
DAV:   7    -0.246957782939E+02    0.75076E-07   -0.16020E-05 10228   0.467E-02    0.575E-03
DAV:   8    -0.246957777037E+02    0.59026E-06   -0.26732E-06 10116   0.213E-02    0.264E-03
DAV:   9    -0.246957775956E+02    0.10802E-06   -0.24503E-07 10020   0.607E-03    0.310E-04
DAV:  10    -0.246957775621E+02    0.33579E-07   -0.10047E-08  5044   0.860E-04    0.146E-04
DAV:  11    -0.246957775548E+02    0.73032E-08   -0.18369E-09  4496   0.517E-04
   6 F= -.24695778E+02 E0= -.24695578E+02  d E =-.609564E-01  mag=    -0.0000
 curvature:  -0.63 expect dE=-0.102E-01 dE for cont linesearch -0.192E-04
 trial: gam= 0.15847 g(F)=  0.686E-02 g(S)=  0.942E-02 ort = 0.175E-02 (trialstep = 0.970E+00)
 search vector abs. value=  0.193E-01
 bond charge predicted
       N       E                     dE             d eps       ncg     rms          rms(c)
DAV:   1    -0.245674204961E+02    0.12836E+00   -0.45440E+00 10304   0.832E+01    0.194E+00
DAV:   2    -0.247751533728E+02   -0.20773E+00   -0.22778E+00  8800   0.153E+01    0.247E+00
DAV:   3    -0.247245039555E+02    0.50649E-01   -0.32273E-01  8904   0.732E+00    0.105E+00
DAV:   4    -0.247120664265E+02    0.12438E-01   -0.36152E-02  9584   0.252E+00    0.277E-01
DAV:   5    -0.247110791192E+02    0.98731E-03   -0.39584E-03  9680   0.620E-01    0.584E-02
DAV:   6    -0.247110598904E+02    0.19229E-04   -0.53554E-04  8972   0.277E-01    0.339E-02
DAV:   7    -0.247110580706E+02    0.18198E-05   -0.40377E-05 10140   0.672E-02    0.742E-03
DAV:   8    -0.247110590378E+02   -0.96719E-06   -0.26456E-06  9224   0.204E-02    0.235E-03
DAV:   9    -0.247110590658E+02   -0.27959E-07   -0.45954E-07  9104   0.101E-02    0.551E-04
DAV:  10    -0.247110590844E+02   -0.18618E-07   -0.22938E-08  7156   0.146E-03    0.223E-04
DAV:  11    -0.247110590822E+02    0.22346E-08   -0.39617E-09  4576   0.741E-04
   7 F= -.24711059E+02 E0= -.24710912E+02  d E =-.152815E-01  mag=     0.0000
 ZBRENT: can't locate minimum, use default step
 trial-energy change:   -0.015282  1 .order   -0.015202   -0.016074   -0.014330
 step:   3.8819(harm=  8.9436)  dis= 0.03074  next Energy=   -24.740808 (dE=-0.450E-01)
 bond charge predicted
       N       E                     dE             d eps       ncg     rms          rms(c)
DAV:   1    -0.235389066539E+02    0.11722E+01   -0.43480E+01 10688   0.244E+02    0.533E+00
DAV:   2    -0.251012869676E+02   -0.15624E+01   -0.18304E+01  8768   0.430E+01    0.576E+00
DAV:   3    -0.248511417544E+02    0.25015E+00   -0.19922E+00  9016   0.177E+01    0.319E+00
DAV:   4    -0.247356434134E+02    0.11550E+00   -0.36977E-01  9432   0.799E+00    0.924E-01
DAV:   5    -0.247250405840E+02    0.10603E-01   -0.38571E-02  9484   0.202E+00    0.209E-01
DAV:   6    -0.247246811597E+02    0.35942E-03   -0.65135E-03  8940   0.968E-01    0.109E-01
DAV:   7    -0.247246496247E+02    0.31535E-04   -0.52034E-04 10080   0.252E-01    0.247E-02
DAV:   8    -0.247246561490E+02   -0.65243E-05   -0.35374E-05  9208   0.785E-02    0.846E-03
DAV:   9    -0.247246556658E+02    0.48329E-06   -0.48072E-06  9360   0.316E-02    0.180E-03
DAV:  10    -0.247246557247E+02   -0.58922E-07   -0.25456E-07  9140   0.460E-03    0.763E-04
DAV:  11    -0.247246557263E+02   -0.16753E-08   -0.18839E-08  5352   0.155E-03
   8 F= -.24724656E+02 E0= -.24724551E+02  d E =-.288782E-01  mag=     0.0000
 curvature:  -3.12 expect dE=-0.683E-01 dE for cont linesearch -0.577E-02
 ZBRENT: interpolating
 opt :   3.0422  next Energy=   -24.727168 (dE=-0.314E-01)
 bond charge predicted
       N       E                     dE             d eps       ncg     rms          rms(c)
DAV:   1    -0.246296220418E+02    0.95034E-01   -0.34312E+00 11192   0.723E+01    0.172E+00
DAV:   2    -0.247804471878E+02   -0.15083E+00   -0.16619E+00  8768   0.134E+01    0.219E+00
DAV:   3    -0.247349421167E+02    0.45505E-01   -0.23687E-01  8908   0.649E+00    0.763E-01
DAV:   4    -0.247272563051E+02    0.76858E-02   -0.20243E-02 10800   0.176E+00    0.149E-01
DAV:   5    -0.247270117256E+02    0.24458E-03   -0.18441E-03  9112   0.424E-01    0.394E-02
DAV:   6    -0.247270049572E+02    0.67684E-05   -0.13560E-04  9172   0.144E-01    0.213E-02
DAV:   7    -0.247270061874E+02   -0.12302E-05   -0.14576E-05  9088   0.339E-02    0.389E-03
DAV:   8    -0.247270062661E+02   -0.78709E-07   -0.84483E-07  9676   0.105E-02    0.129E-03
DAV:   9    -0.247270061437E+02    0.12239E-06   -0.11123E-07  9696   0.463E-03    0.331E-04
DAV:  10    -0.247270061336E+02    0.10114E-07   -0.59382E-09  4736   0.946E-04    0.132E-04
DAV:  11    -0.247270061317E+02    0.18754E-08   -0.15189E-09  4432   0.339E-04
   9 F= -.24727006E+02 E0= -.24726896E+02  d E =-.312286E-01  mag=    -0.0000
 curvature:  -1.36 expect dE=-0.161E-01 dE for cont linesearch -0.492E-05
 trial: gam= 0.89835 g(F)=  0.359E-02 g(S)=  0.830E-02 ort =-0.265E-03 (trialstep = 0.991E+00)
 search vector abs. value=  0.270E-01
 bond charge predicted
       N       E                     dE             d eps       ncg     rms          rms(c)
DAV:   1    -0.248132724182E+02   -0.86266E-01   -0.69211E+00  9264   0.947E+01    0.617E+00
DAV:   2    -0.259918386988E+02   -0.11786E+01   -0.11060E+01  9104   0.412E+01    0.103E+01
DAV:   3    -0.247404369210E+02    0.12514E+01   -0.43080E+00  8896   0.290E+01    0.109E+00
DAV:   4    -0.247351239563E+02    0.53130E-02   -0.11787E-01  8568   0.237E+00    0.635E-01
DAV:   5    -0.247318912458E+02    0.32327E-02   -0.15509E-02  9532   0.148E+00    0.144E-01
DAV:   6    -0.247317612855E+02    0.12996E-03   -0.21237E-03  9120   0.588E-01    0.911E-02
DAV:   7    -0.247317158632E+02    0.45422E-04   -0.45055E-04  9596   0.260E-01    0.344E-02
DAV:   8    -0.247317035528E+02    0.12310E-04   -0.37508E-05  9640   0.749E-02    0.644E-03
DAV:   9    -0.247317027282E+02    0.82468E-06   -0.32185E-06 11920   0.138E-02    0.941E-04
DAV:  10    -0.247317026684E+02    0.59780E-07   -0.15337E-07  8776   0.331E-03    0.270E-04
DAV:  11    -0.247317026401E+02    0.28244E-07   -0.47394E-09  5136   0.850E-04    0.178E-04
DAV:  12    -0.247317026394E+02    0.73487E-09   -0.24846E-09  4364   0.501E-04
  10 F= -.24731703E+02 E0= -.24731562E+02  d E =-.469651E-02  mag=    -0.0000
 trial-energy change:   -0.004697  1 .order   -0.004527   -0.011550    0.002495
 step:   0.8251(harm=  0.8151)  dis= 0.00746  next Energy=   -24.731911 (dE=-0.490E-02)
 bond charge predicted
       N       E                     dE             d eps       ncg     rms          rms(c)
DAV:   1    -0.247341166128E+02   -0.24140E-02   -0.20294E-01  9336   0.159E+01    0.999E-01
DAV:   2    -0.247655820196E+02   -0.31465E-01   -0.30009E-01  9144   0.677E+00    0.182E+00
DAV:   3    -0.247324064985E+02    0.33176E-01   -0.13353E-01  9112   0.463E+00    0.249E-01
DAV:   4    -0.247319814713E+02    0.42503E-03   -0.29991E-03  8576   0.566E-01    0.741E-02
DAV:   5    -0.247319314876E+02    0.49984E-04   -0.20859E-04 11204   0.141E-01    0.136E-02
DAV:   6    -0.247319313420E+02    0.14564E-06   -0.20507E-05  8812   0.586E-02    0.118E-02
DAV:   7    -0.247319310021E+02    0.33990E-06   -0.35426E-06 10484   0.221E-02    0.168E-03
DAV:   8    -0.247319311901E+02   -0.18803E-06   -0.20001E-07  9128   0.493E-03    0.285E-04
DAV:   9    -0.247319312098E+02   -0.19701E-07   -0.62964E-09  4720   0.109E-03    0.118E-04
DAV:  10    -0.247319312223E+02   -0.12488E-07   -0.14574E-09  4284   0.484E-04    0.306E-05
DAV:  11    -0.247319312244E+02   -0.21018E-08   -0.39798E-10  4212   0.212E-04
  11 F= -.24731931E+02 E0= -.24731841E+02  d E =-.492509E-02  mag=    -0.0000
 curvature:  -0.94 expect dE=-0.234E-02 dE for cont linesearch -0.129E-05
 trial: gam= 0.09249 g(F)=  0.197E-02 g(S)=  0.515E-03 ort =-0.193E-03 (trialstep = 0.958E+00)
 search vector abs. value=  0.268E-02
 bond charge predicted
       N       E                     dE             d eps       ncg     rms          rms(c)
DAV:   1    -0.247268978517E+02    0.50334E-02   -0.23066E-01  8768   0.191E+01    0.627E-01
DAV:   2    -0.247433216600E+02   -0.16424E-01   -0.17039E-01  8920   0.456E+00    0.968E-01
DAV:   3    -0.247340184858E+02    0.93032E-02   -0.43379E-02  9032   0.269E+00    0.243E-01
DAV:   4    -0.247334367465E+02    0.58174E-03   -0.17765E-03  9496   0.539E-01    0.676E-02
DAV:   5    -0.247333774836E+02    0.59263E-04   -0.19484E-04 10408   0.132E-01    0.122E-02
DAV:   6    -0.247333776049E+02   -0.12134E-06   -0.20997E-05  8768   0.568E-02    0.865E-03
DAV:   7    -0.247333774399E+02    0.16506E-06   -0.18283E-06 10188   0.160E-02    0.150E-03
DAV:   8    -0.247333775811E+02   -0.14122E-06   -0.11811E-07  8748   0.279E-03    0.481E-04
DAV:   9    -0.247333775899E+02   -0.87839E-08   -0.10785E-08  5124   0.111E-03
  12 F= -.24733378E+02 E0= -.24733285E+02  d E =-.144637E-02  mag=    -0.0000
 trial-energy change:   -0.001446  1 .order   -0.001446   -0.002361   -0.000531
 step:   1.2358(harm=  1.2358)  dis= 0.00568  next Energy=   -24.733454 (dE=-0.152E-02)
 bond charge predicted
       N       E                     dE             d eps       ncg     rms          rms(c)
DAV:   1    -0.247329085647E+02    0.46902E-03   -0.19323E-02  8784   0.554E+00    0.182E-01
DAV:   2    -0.247342922666E+02   -0.13837E-02   -0.14315E-02  8904   0.132E+00    0.281E-01
DAV:   3    -0.247335054716E+02    0.78679E-03   -0.36486E-03  8984   0.783E-01    0.699E-02
DAV:   4    -0.247334578309E+02    0.47641E-04   -0.14726E-04  9448   0.155E-01    0.196E-02
DAV:   5    -0.247334533003E+02    0.45306E-05   -0.16414E-05 10368   0.384E-02    0.354E-03
DAV:   6    -0.247334533798E+02   -0.79427E-07   -0.17943E-06  8760   0.166E-02    0.248E-03
DAV:   7    -0.247334534028E+02   -0.23006E-07   -0.15409E-07 10004   0.465E-03    0.431E-04
DAV:   8    -0.247334534375E+02   -0.34791E-07   -0.86714E-09  4656   0.800E-04    0.137E-04
DAV:   9    -0.247334534423E+02   -0.47858E-08   -0.18169E-09  4280   0.544E-04
  13 F= -.24733453E+02 E0= -.24733358E+02  d E =-.152222E-02  mag=    -0.0000
 curvature:  -0.67 expect dE=-0.438E-03 dE for cont linesearch -0.571E-08
 trial: gam= 0.25674 g(F)=  0.431E-03 g(S)=  0.222E-03 ort =-0.477E-05 (trialstep = 0.101E+01)
 search vector abs. value=  0.827E-03
 bond charge predicted
       N       E                     dE             d eps       ncg     rms          rms(c)
DAV:   1    -0.247256855846E+02    0.77679E-02   -0.26989E-01 11616   0.213E+01    0.248E-01
DAV:   2    -0.247344528804E+02   -0.87673E-02   -0.92588E-02  8200   0.272E+00    0.217E-01
DAV:   3    -0.247342174300E+02    0.23545E-03   -0.40326E-03 10128   0.814E-01    0.136E-01
DAV:   4    -0.247340075625E+02    0.20987E-03   -0.45878E-04 10192   0.294E-01    0.487E-02
DAV:   5    -0.247339701015E+02    0.37461E-04   -0.89753E-05 10944   0.120E-01    0.672E-03
DAV:   6    -0.247339707437E+02   -0.64220E-06   -0.11779E-05  8680   0.409E-02    0.367E-03
DAV:   7    -0.247339707634E+02   -0.19691E-07   -0.36980E-07 10952   0.634E-03    0.114E-03
DAV:   8    -0.247339707573E+02    0.61500E-08   -0.38553E-08  8368   0.194E-03
  14 F= -.24733971E+02 E0= -.24733859E+02  d E =-.517315E-03  mag=     0.0000
 trial-energy change:   -0.000517  1 .order   -0.000518   -0.000661   -0.000375
 step:   2.3478(harm=  2.3478)  dis= 0.00747  next Energy=   -24.734219 (dE=-0.765E-03)
 bond charge predicted
       N       E                     dE             d eps       ncg     rms          rms(c)
DAV:   1    -0.247199249959E+02    0.14046E-01   -0.46847E-01 11640   0.281E+01    0.326E-01
DAV:   2    -0.247350652302E+02   -0.15140E-01   -0.15980E-01  8208   0.357E+00    0.289E-01
DAV:   3    -0.247346325954E+02    0.43263E-03   -0.70171E-03 10096   0.107E+00    0.178E-01
DAV:   4    -0.247342696239E+02    0.36297E-03   -0.77599E-04 10248   0.382E-01    0.640E-02
DAV:   5    -0.247342051820E+02    0.64442E-04   -0.15490E-04 11016   0.156E-01    0.861E-03
DAV:   6    -0.247342062825E+02   -0.11004E-05   -0.20218E-05  8664   0.542E-02    0.479E-03
DAV:   7    -0.247342063216E+02   -0.39124E-07   -0.63083E-07 10808   0.825E-03    0.148E-03
DAV:   8    -0.247342063213E+02    0.28467E-09   -0.67293E-08  8748   0.260E-03
  15 F= -.24734206E+02 E0= -.24734068E+02  d E =-.752879E-03  mag=     0.0000
 curvature:  -1.49 expect dE=-0.694E-04 dE for cont linesearch -0.460E-08
 trial: gam= 0.06755 g(F)=  0.292E-04 g(S)=  0.174E-04 ort = 0.160E-05 (trialstep = 0.128E+01)
 search vector abs. value=  0.506E-04
 bond charge predicted
       N       E                     dE             d eps       ncg     rms          rms(c)
DAV:   1    -0.247341682816E+02    0.38040E-04   -0.26671E-02  9172   0.623E+00    0.329E-01
DAV:   2    -0.247379299781E+02   -0.37617E-02   -0.34617E-02  9052   0.222E+00    0.592E-01
DAV:   3    -0.247342869039E+02    0.36431E-02   -0.14270E-02  8996   0.153E+00    0.789E-02
DAV:   4    -0.247342480630E+02    0.38841E-04   -0.31116E-04  8752   0.171E-01    0.344E-02
DAV:   5    -0.247342358483E+02    0.12215E-04   -0.33472E-05 10616   0.660E-02    0.617E-03
DAV:   6    -0.247342351312E+02    0.71711E-06   -0.38212E-06  8928   0.222E-02    0.443E-03
DAV:   7    -0.247342349436E+02    0.18758E-06   -0.80824E-07 10140   0.112E-02    0.939E-04
DAV:   8    -0.247342348653E+02    0.78257E-07   -0.46650E-08  8704   0.257E-03    0.165E-04
DAV:   9    -0.247342348471E+02    0.18274E-07   -0.17112E-09  4304   0.534E-04    0.894E-05
DAV:  10    -0.247342348432E+02    0.38508E-08   -0.49450E-10  4200   0.279E-04
  16 F= -.24734235E+02 E0= -.24734098E+02  d E =-.285219E-04  mag=     0.0000
 trial-energy change:   -0.000029  1 .order   -0.000029   -0.000060    0.000002
 step:   1.2334(harm=  1.2346)  dis= 0.00062  next Energy=   -24.734235 (dE=-0.286E-04)
 bond charge predicted
       N       E                     dE             d eps       ncg     rms          rms(c)
DAV:   1    -0.247342348130E+02    0.34078E-07   -0.36097E-05  9176   0.229E-01    0.121E-02
DAV:   2    -0.247342395390E+02   -0.47260E-05   -0.46965E-05  9108   0.817E-02    0.218E-02
DAV:   3    -0.247342348363E+02    0.47027E-05   -0.19392E-05  8996   0.563E-02    0.292E-03
DAV:   4    -0.247342348181E+02    0.18154E-07   -0.42362E-07  8744   0.636E-03    0.126E-03
DAV:   5    -0.247342348351E+02   -0.16948E-07   -0.43188E-08  7916   0.241E-03    0.229E-04
DAV:   6    -0.247342348493E+02   -0.14244E-07   -0.48559E-09  4168   0.799E-04    0.148E-04
DAV:   7    -0.247342348510E+02   -0.16289E-08   -0.14517E-09  4100   0.529E-04
  17 F= -.24734235E+02 E0= -.24734098E+02  d E =-.285296E-04  mag=    -0.0000
 curvature:  -0.67 expect dE=-0.166E-04 dE for cont linesearch -0.130E-08
 trial: gam= 0.52551 g(F)=  0.880E-05 g(S)=  0.160E-04 ort = 0.313E-06 (trialstep = 0.127E+01)
 search vector abs. value=  0.391E-04
 bond charge predicted
       N       E                     dE             d eps       ncg     rms          rms(c)
DAV:   1    -0.247335545979E+02    0.68025E-03   -0.26488E-02  9504   0.680E+00    0.212E-01
DAV:   2    -0.247356748777E+02   -0.21203E-02   -0.20189E-02  8936   0.158E+00    0.372E-01
DAV:   3    -0.247342770988E+02    0.13978E-02   -0.61036E-03  8976   0.101E+00    0.643E-02
DAV:   4    -0.247342594019E+02    0.17697E-04   -0.13001E-04  9164   0.113E-01    0.388E-02
DAV:   5    -0.247342465120E+02    0.12890E-04   -0.50685E-05  9592   0.936E-02    0.677E-03
DAV:   6    -0.247342463771E+02    0.13489E-06   -0.35394E-06  9444   0.216E-02    0.222E-03
DAV:   7    -0.247342464103E+02   -0.33230E-07   -0.18763E-07  8788   0.523E-03    0.613E-04
DAV:   8    -0.247342464517E+02   -0.41328E-07   -0.14231E-08  5512   0.129E-03    0.169E-04
DAV:   9    -0.247342464622E+02   -0.10489E-07   -0.26928E-09  4248   0.601E-04    0.634E-05
DAV:  10    -0.247342464628E+02   -0.66211E-09   -0.64046E-10  4108   0.233E-04
  18 F= -.24734246E+02 E0= -.24734109E+02  d E =-.116119E-04  mag=     0.0000
 trial-energy change:   -0.000012  1 .order   -0.000013   -0.000032    0.000006
 step:   1.0272(harm=  1.0624)  dis= 0.00050  next Energy=   -24.734247 (dE=-0.122E-04)
 bond charge predicted
       N       E                     dE             d eps       ncg     rms          rms(c)
DAV:   1    -0.247342211324E+02    0.25330E-04   -0.96964E-04  9440   0.130E+00    0.408E-02
DAV:   2    -0.247343012659E+02   -0.80133E-04   -0.74655E-04  8928   0.306E-01    0.715E-02
DAV:   3    -0.247342487029E+02    0.52563E-04   -0.22524E-04  8968   0.195E-01    0.123E-02
DAV:   4    -0.247342479688E+02    0.73405E-06   -0.47753E-06  9152   0.215E-02    0.744E-03
DAV:   5    -0.247342472817E+02    0.68708E-06   -0.18530E-06  9536   0.180E-02    0.130E-03
DAV:   6    -0.247342472132E+02    0.68529E-07   -0.12944E-07  9456   0.411E-03    0.422E-04
DAV:   7    -0.247342472021E+02    0.11144E-07   -0.62343E-09  4224   0.102E-03    0.120E-04
DAV:   8    -0.247342471944E+02    0.76379E-08   -0.10755E-09  4112   0.400E-04
  19 F= -.24734247E+02 E0= -.24734110E+02  d E =-.123435E-04  mag=    -0.0000
 curvature:  -0.81 expect dE=-0.438E-05 dE for cont linesearch -0.153E-07
 trial: gam= 0.15261 g(F)=  0.228E-05 g(S)=  0.314E-05 ort = 0.861E-06 (trialstep = 0.122E+01)
 search vector abs. value=  0.659E-05
 reached required accuracy - stopping structural energy minimisation
 writing wavefunctions
