   9   9   0   0
  0.1168346E+02  0.5893587E-09  0.5893587E-09  0.5545405E-09  0.5000000E-15
  1.000000000000000E-004
  CAR 
 unknown system                          
     23.95032024    -58.61813473  301      8.52742803      1.00000000
    -58.618  0.0000E+00  0.0000E+00  0.0000E+00  0.0000E+00
    -58.343  0.0000E+00  0.0000E+00  0.0000E+00  0.0000E+00
    -58.068  0.0000E+00  0.0000E+00  0.0000E+00  0.0000E+00
    -57.792  0.0000E+00  0.0000E+00  0.0000E+00  0.0000E+00
    -57.517  0.0000E+00  0.0000E+00  0.0000E+00  0.0000E+00
    -57.242  0.0000E+00  0.0000E+00  0.0000E+00  0.0000E+00
    -56.967  0.0000E+00  0.0000E+00  0.0000E+00  0.0000E+00
    -56.692  0.0000E+00  0.0000E+00  0.0000E+00  0.0000E+00
    -56.416  0.0000E+00  0.0000E+00  0.0000E+00  0.0000E+00
    -56.141  0.0000E+00  0.0000E+00  0.0000E+00  0.0000E+00
    -55.866  0.0000E+00  0.0000E+00  0.0000E+00  0.0000E+00
    -55.591  0.0000E+00  0.0000E+00  0.0000E+00  0.0000E+00
    -55.315  0.0000E+00  0.0000E+00  0.0000E+00  0.0000E+00
    -55.040  0.0000E+00  0.0000E+00  0.0000E+00  0.0000E+00
    -54.765  0.8395E+02  0.8395E+02  0.7192E+01  0.7192E+01
    -54.490  0.0000E+00  0.0000E+00  0.1800E+02  0.1800E+02
    -54.214  0.0000E+00  0.0000E+00  0.1800E+02  0.1800E+02
    -53.939  0.0000E+00  0.0000E+00  0.1800E+02  0.1800E+02
    -53.664  0.0000E+00  0.0000E+00  0.1800E+02  0.1800E+02
    -53.389  0.0000E+00  0.0000E+00  0.1800E+02  0.1800E+02
    -53.114  0.0000E+00  0.0000E+00  0.1800E+02  0.1800E+02
    -52.838  0.0000E+00  0.0000E+00  0.1800E+02  0.1800E+02
    -52.563  0.0000E+00  0.0000E+00  0.1800E+02  0.1800E+02
    -52.288  0.0000E+00  0.0000E+00  0.1800E+02  0.1800E+02
    -52.013  0.0000E+00  0.0000E+00  0.1800E+02  0.1800E+02
    -51.737  0.0000E+00  0.0000E+00  0.1800E+02  0.1800E+02
    -51.462  0.0000E+00  0.0000E+00  0.1800E+02  0.1800E+02
    -51.187  0.0000E+00  0.0000E+00  0.1800E+02  0.1800E+02
    -50.912  0.0000E+00  0.0000E+00  0.1800E+02  0.1800E+02
    -50.637  0.0000E+00  0.0000E+00  0.1800E+02  0.1800E+02
    -50.361  0.0000E+00  0.0000E+00  0.1800E+02  0.1800E+02
    -50.086  0.0000E+00  0.0000E+00  0.1800E+02  0.1800E+02
    -49.811  0.0000E+00  0.0000E+00  0.1800E+02  0.1800E+02
    -49.536  0.0000E+00  0.0000E+00  0.1800E+02  0.1800E+02
    -49.260  0.0000E+00  0.0000E+00  0.1800E+02  0.1800E+02
    -48.985  0.0000E+00  0.0000E+00  0.1800E+02  0.1800E+02
    -48.710  0.0000E+00  0.0000E+00  0.1800E+02  0.1800E+02
    -48.435  0.0000E+00  0.0000E+00  0.1800E+02  0.1800E+02
    -48.159  0.0000E+00  0.0000E+00  0.1800E+02  0.1800E+02
    -47.884  0.0000E+00  0.0000E+00  0.1800E+02  0.1800E+02
    -47.609  0.0000E+00  0.0000E+00  0.1800E+02  0.1800E+02
    -47.334  0.0000E+00  0.0000E+00  0.1800E+02  0.1800E+02
    -47.059  0.0000E+00  0.0000E+00  0.1800E+02  0.1800E+02
    -46.783  0.0000E+00  0.0000E+00  0.1800E+02  0.1800E+02
    -46.508  0.0000E+00  0.0000E+00  0.1800E+02  0.1800E+02
    -46.233  0.0000E+00  0.0000E+00  0.1800E+02  0.1800E+02
    -45.958  0.0000E+00  0.0000E+00  0.1800E+02  0.1800E+02
    -45.682  0.0000E+00  0.0000E+00  0.1800E+02  0.1800E+02
    -45.407  0.0000E+00  0.0000E+00  0.1800E+02  0.1800E+02
    -45.132  0.0000E+00  0.0000E+00  0.1800E+02  0.1800E+02
    -44.857  0.0000E+00  0.0000E+00  0.1800E+02  0.1800E+02
    -44.581  0.0000E+00  0.0000E+00  0.1800E+02  0.1800E+02
    -44.306  0.0000E+00  0.0000E+00  0.1800E+02  0.1800E+02
    -44.031  0.0000E+00  0.0000E+00  0.1800E+02  0.1800E+02
    -43.756  0.0000E+00  0.0000E+00  0.1800E+02  0.1800E+02
    -43.481  0.0000E+00  0.0000E+00  0.1800E+02  0.1800E+02
    -43.205  0.0000E+00  0.0000E+00  0.1800E+02  0.1800E+02
    -42.930  0.0000E+00  0.0000E+00  0.1800E+02  0.1800E+02
    -42.655  0.0000E+00  0.0000E+00  0.1800E+02  0.1800E+02
    -42.380  0.0000E+00  0.0000E+00  0.1800E+02  0.1800E+02
    -42.104  0.0000E+00  0.0000E+00  0.1800E+02  0.1800E+02
    -41.829  0.0000E+00  0.0000E+00  0.1800E+02  0.1800E+02
    -41.554  0.0000E+00  0.0000E+00  0.1800E+02  0.1800E+02
    -41.279  0.0000E+00  0.0000E+00  0.1800E+02  0.1800E+02
    -41.004  0.0000E+00  0.0000E+00  0.1800E+02  0.1800E+02
    -40.728  0.0000E+00  0.0000E+00  0.1800E+02  0.1800E+02
    -40.453  0.0000E+00  0.0000E+00  0.1800E+02  0.1800E+02
    -40.178  0.0000E+00  0.0000E+00  0.1800E+02  0.1800E+02
    -39.903  0.0000E+00  0.0000E+00  0.1800E+02  0.1800E+02
    -39.627  0.0000E+00  0.0000E+00  0.1800E+02  0.1800E+02
    -39.352  0.0000E+00  0.0000E+00  0.1800E+02  0.1800E+02
    -39.077  0.0000E+00  0.0000E+00  0.1800E+02  0.1800E+02
    -38.802  0.0000E+00  0.0000E+00  0.1800E+02  0.1800E+02
    -38.526  0.0000E+00  0.0000E+00  0.1800E+02  0.1800E+02
    -38.251  0.0000E+00  0.0000E+00  0.1800E+02  0.1800E+02
    -37.976  0.0000E+00  0.0000E+00  0.1800E+02  0.1800E+02
    -37.701  0.0000E+00  0.0000E+00  0.1800E+02  0.1800E+02
    -37.426  0.0000E+00  0.0000E+00  0.1800E+02  0.1800E+02
    -37.150  0.0000E+00  0.0000E+00  0.1800E+02  0.1800E+02
    -36.875  0.0000E+00  0.0000E+00  0.1800E+02  0.1800E+02
    -36.600  0.0000E+00  0.0000E+00  0.1800E+02  0.1800E+02
    -36.325  0.0000E+00  0.0000E+00  0.1800E+02  0.1800E+02
    -36.049  0.0000E+00  0.0000E+00  0.1800E+02  0.1800E+02
    -35.774  0.0000E+00  0.0000E+00  0.1800E+02  0.1800E+02
    -35.499  0.0000E+00  0.0000E+00  0.1800E+02  0.1800E+02
    -35.224  0.0000E+00  0.0000E+00  0.1800E+02  0.1800E+02
    -34.949  0.0000E+00  0.0000E+00  0.1800E+02  0.1800E+02
    -34.673  0.0000E+00  0.0000E+00  0.1800E+02  0.1800E+02
    -34.398  0.0000E+00  0.0000E+00  0.1800E+02  0.1800E+02
    -34.123  0.0000E+00  0.0000E+00  0.1800E+02  0.1800E+02
    -33.848  0.0000E+00  0.0000E+00  0.1800E+02  0.1800E+02
    -33.572  0.0000E+00  0.0000E+00  0.1800E+02  0.1800E+02
    -33.297  0.0000E+00  0.0000E+00  0.1800E+02  0.1800E+02
    -33.022  0.0000E+00  0.0000E+00  0.1800E+02  0.1800E+02
    -32.747  0.0000E+00  0.0000E+00  0.1800E+02  0.1800E+02
    -32.471  0.0000E+00  0.0000E+00  0.1800E+02  0.1800E+02
    -32.196  0.0000E+00  0.0000E+00  0.1800E+02  0.1800E+02
    -31.921  0.0000E+00  0.0000E+00  0.1800E+02  0.1800E+02
    -31.646  0.0000E+00  0.0000E+00  0.1800E+02  0.1800E+02
    -31.371  0.0000E+00  0.0000E+00  0.1800E+02  0.1800E+02
    -31.095  0.0000E+00  0.0000E+00  0.1800E+02  0.1800E+02
    -30.820  0.0000E+00  0.0000E+00  0.1800E+02  0.1800E+02
    -30.545  0.0000E+00  0.0000E+00  0.1800E+02  0.1800E+02
    -30.270  0.0000E+00  0.0000E+00  0.1800E+02  0.1800E+02
    -29.994  0.0000E+00  0.0000E+00  0.1800E+02  0.1800E+02
    -29.719  0.0000E+00  0.0000E+00  0.1800E+02  0.1800E+02
    -29.444  0.0000E+00  0.0000E+00  0.1800E+02  0.1800E+02
    -29.169  0.0000E+00  0.0000E+00  0.1800E+02  0.1800E+02
    -28.893  0.0000E+00  0.0000E+00  0.1800E+02  0.1800E+02
    -28.618  0.0000E+00  0.0000E+00  0.1800E+02  0.1800E+02
    -28.343  0.0000E+00  0.0000E+00  0.1800E+02  0.1800E+02
    -28.068  0.0000E+00  0.0000E+00  0.1800E+02  0.1800E+02
    -27.793  0.0000E+00  0.0000E+00  0.1800E+02  0.1800E+02
    -27.517  0.0000E+00  0.0000E+00  0.1800E+02  0.1800E+02
    -27.242  0.0000E+00  0.0000E+00  0.1800E+02  0.1800E+02
    -26.967  0.0000E+00  0.0000E+00  0.1800E+02  0.1800E+02
    -26.692  0.0000E+00  0.0000E+00  0.1800E+02  0.1800E+02
    -26.416  0.0000E+00  0.0000E+00  0.1800E+02  0.1800E+02
    -26.141  0.0000E+00  0.0000E+00  0.1800E+02  0.1800E+02
    -25.866  0.0000E+00  0.0000E+00  0.1800E+02  0.1800E+02
    -25.591  0.0000E+00  0.0000E+00  0.1800E+02  0.1800E+02
    -25.316  0.0000E+00  0.0000E+00  0.1800E+02  0.1800E+02
    -25.040  0.0000E+00  0.0000E+00  0.1800E+02  0.1800E+02
    -24.765  0.0000E+00  0.0000E+00  0.1800E+02  0.1800E+02
    -24.490  0.0000E+00  0.0000E+00  0.1800E+02  0.1800E+02
    -24.215  0.0000E+00  0.0000E+00  0.1800E+02  0.1800E+02
    -23.939  0.0000E+00  0.0000E+00  0.1800E+02  0.1800E+02
    -23.664  0.0000E+00  0.0000E+00  0.1800E+02  0.1800E+02
    -23.389  0.0000E+00  0.0000E+00  0.1800E+02  0.1800E+02
    -23.114  0.0000E+00  0.0000E+00  0.1800E+02  0.1800E+02
    -22.838  0.0000E+00  0.0000E+00  0.1800E+02  0.1800E+02
    -22.563  0.0000E+00  0.0000E+00  0.1800E+02  0.1800E+02
    -22.288  0.0000E+00  0.0000E+00  0.1800E+02  0.1800E+02
    -22.013  0.0000E+00  0.0000E+00  0.1800E+02  0.1800E+02
    -21.738  0.0000E+00  0.0000E+00  0.1800E+02  0.1800E+02
    -21.462  0.0000E+00  0.0000E+00  0.1800E+02  0.1800E+02
    -21.187  0.0000E+00  0.0000E+00  0.1800E+02  0.1800E+02
    -20.912  0.0000E+00  0.0000E+00  0.1800E+02  0.1800E+02
    -20.637  0.0000E+00  0.0000E+00  0.1800E+02  0.1800E+02
    -20.361  0.0000E+00  0.0000E+00  0.1800E+02  0.1800E+02
    -20.086  0.0000E+00  0.0000E+00  0.1800E+02  0.1800E+02
    -19.811  0.0000E+00  0.0000E+00  0.1800E+02  0.1800E+02
    -19.536  0.0000E+00  0.0000E+00  0.1800E+02  0.1800E+02
    -19.261  0.0000E+00  0.0000E+00  0.1800E+02  0.1800E+02
    -18.985  0.0000E+00  0.0000E+00  0.1800E+02  0.1800E+02
    -18.710  0.0000E+00  0.0000E+00  0.1800E+02  0.1800E+02
    -18.435  0.0000E+00  0.0000E+00  0.1800E+02  0.1800E+02
    -18.160  0.0000E+00  0.0000E+00  0.1800E+02  0.1800E+02
    -17.884  0.0000E+00  0.0000E+00  0.1800E+02  0.1800E+02
    -17.609  0.0000E+00  0.0000E+00  0.1800E+02  0.1800E+02
    -17.334  0.0000E+00  0.0000E+00  0.1800E+02  0.1800E+02
    -17.059  0.0000E+00  0.0000E+00  0.1800E+02  0.1800E+02
    -16.783  0.0000E+00  0.0000E+00  0.1800E+02  0.1800E+02
    -16.508  0.0000E+00  0.0000E+00  0.1800E+02  0.1800E+02
    -16.233  0.0000E+00  0.0000E+00  0.1800E+02  0.1800E+02
    -15.958  0.0000E+00  0.0000E+00  0.1800E+02  0.1800E+02
    -15.683  0.0000E+00  0.0000E+00  0.1800E+02  0.1800E+02
    -15.407  0.0000E+00  0.0000E+00  0.1800E+02  0.1800E+02
    -15.132  0.0000E+00  0.0000E+00  0.1800E+02  0.1800E+02
    -14.857  0.0000E+00  0.0000E+00  0.1800E+02  0.1800E+02
    -14.582  0.0000E+00  0.0000E+00  0.1800E+02  0.1800E+02
    -14.306  0.0000E+00  0.0000E+00  0.1800E+02  0.1800E+02
    -14.031  0.0000E+00  0.0000E+00  0.1800E+02  0.1800E+02
    -13.756  0.0000E+00  0.0000E+00  0.1800E+02  0.1800E+02
    -13.481  0.0000E+00  0.0000E+00  0.1800E+02  0.1800E+02
    -13.205  0.0000E+00  0.0000E+00  0.1800E+02  0.1800E+02
    -12.930  0.0000E+00  0.0000E+00  0.1800E+02  0.1800E+02
    -12.655  0.0000E+00  0.0000E+00  0.1800E+02  0.1800E+02
    -12.380  0.0000E+00  0.0000E+00  0.1800E+02  0.1800E+02
    -12.105  0.0000E+00  0.0000E+00  0.1800E+02  0.1800E+02
    -11.829  0.0000E+00  0.0000E+00  0.1800E+02  0.1800E+02
    -11.554  0.0000E+00  0.0000E+00  0.1800E+02  0.1800E+02
    -11.279  0.0000E+00  0.0000E+00  0.1800E+02  0.1800E+02
    -11.004  0.0000E+00  0.0000E+00  0.1800E+02  0.1800E+02
    -10.728  0.0000E+00  0.0000E+00  0.1800E+02  0.1800E+02
    -10.453  0.0000E+00  0.0000E+00  0.1800E+02  0.1800E+02
    -10.178  0.0000E+00  0.0000E+00  0.1800E+02  0.1800E+02
     -9.903  0.0000E+00  0.0000E+00  0.1800E+02  0.1800E+02
     -9.628  0.0000E+00  0.0000E+00  0.1800E+02  0.1800E+02
     -9.352  0.0000E+00  0.0000E+00  0.1800E+02  0.1800E+02
     -9.077  0.0000E+00  0.0000E+00  0.1800E+02  0.1800E+02
     -8.802  0.0000E+00  0.0000E+00  0.1800E+02  0.1800E+02
     -8.527  0.0000E+00  0.0000E+00  0.1800E+02  0.1800E+02
     -8.251  0.0000E+00  0.0000E+00  0.1800E+02  0.1800E+02
     -7.976  0.0000E+00  0.0000E+00  0.1800E+02  0.1800E+02
     -7.701  0.0000E+00  0.0000E+00  0.1800E+02  0.1800E+02
     -7.426  0.0000E+00  0.0000E+00  0.1800E+02  0.1800E+02
     -7.150  0.0000E+00  0.0000E+00  0.1800E+02  0.1800E+02
     -6.875  0.0000E+00  0.0000E+00  0.1800E+02  0.1800E+02
     -6.600  0.0000E+00  0.0000E+00  0.1800E+02  0.1800E+02
     -6.325  0.0000E+00  0.0000E+00  0.1800E+02  0.1800E+02
     -6.050  0.0000E+00  0.0000E+00  0.1800E+02  0.1800E+02
     -5.774  0.0000E+00  0.0000E+00  0.1800E+02  0.1800E+02
     -5.499  0.0000E+00  0.0000E+00  0.1800E+02  0.1800E+02
     -5.224  0.0000E+00  0.0000E+00  0.1800E+02  0.1800E+02
     -4.949  0.0000E+00  0.0000E+00  0.1800E+02  0.1800E+02
     -4.673  0.0000E+00  0.0000E+00  0.1800E+02  0.1800E+02
     -4.398  0.0000E+00  0.0000E+00  0.1800E+02  0.1800E+02
     -4.123  0.0000E+00  0.0000E+00  0.1800E+02  0.1800E+02
     -3.848  0.0000E+00  0.0000E+00  0.1800E+02  0.1800E+02
     -3.572  0.0000E+00  0.0000E+00  0.1800E+02  0.1800E+02
     -3.297  0.0000E+00  0.0000E+00  0.1800E+02  0.1800E+02
     -3.022  0.0000E+00  0.0000E+00  0.1800E+02  0.1800E+02
     -2.747  0.0000E+00  0.0000E+00  0.1800E+02  0.1800E+02
     -2.472  0.0000E+00  0.0000E+00  0.1800E+02  0.1800E+02
     -2.196  0.0000E+00  0.0000E+00  0.1800E+02  0.1800E+02
     -1.921  0.0000E+00  0.0000E+00  0.1800E+02  0.1800E+02
     -1.646  0.6234E-01  0.6234E-01  0.1800E+02  0.1800E+02
     -1.371  0.2177E+00  0.2177E+00  0.1804E+02  0.1804E+02
     -1.095  0.3225E+00  0.3225E+00  0.1812E+02  0.1812E+02
     -0.820  0.4459E+00  0.4459E+00  0.1823E+02  0.1823E+02
     -0.545  0.4388E+00  0.4388E+00  0.1836E+02  0.1836E+02
     -0.270  0.4135E+00  0.4135E+00  0.1847E+02  0.1847E+02
      0.005  0.4702E+00  0.4702E+00  0.1860E+02  0.1860E+02
      0.281  0.5518E+00  0.5518E+00  0.1873E+02  0.1873E+02
      0.556  0.9436E+00  0.9436E+00  0.1895E+02  0.1895E+02
      0.831  0.7130E+00  0.7130E+00  0.1922E+02  0.1922E+02
      1.106  0.5102E+00  0.5102E+00  0.1939E+02  0.1939E+02
      1.382  0.4779E+00  0.4779E+00  0.1951E+02  0.1951E+02
      1.657  0.6585E+00  0.6585E+00  0.1967E+02  0.1967E+02
      1.932  0.9014E+00  0.9014E+00  0.1988E+02  0.1988E+02
      2.207  0.8027E+00  0.8027E+00  0.2011E+02  0.2011E+02
      2.483  0.8793E+00  0.8793E+00  0.2033E+02  0.2033E+02
      2.758  0.1709E+01  0.1709E+01  0.2069E+02  0.2069E+02
      3.033  0.9902E+00  0.9902E+00  0.2109E+02  0.2109E+02
      3.308  0.1075E+01  0.1075E+01  0.2132E+02  0.2132E+02
      3.583  0.1609E+01  0.1609E+01  0.2175E+02  0.2175E+02
      3.859  0.1049E+01  0.1049E+01  0.2210E+02  0.2210E+02
      4.134  0.1599E+01  0.1599E+01  0.2245E+02  0.2245E+02
      4.409  0.2269E+01  0.2269E+01  0.2316E+02  0.2316E+02
      4.684  0.3185E+01  0.3185E+01  0.2375E+02  0.2375E+02
      4.960  0.5661E+01  0.5661E+01  0.2472E+02  0.2472E+02
      5.235  0.3148E+01  0.3148E+01  0.2586E+02  0.2586E+02
      5.510  0.9046E+01  0.9046E+01  0.2742E+02  0.2742E+02
      5.785  0.8674E+01  0.8674E+01  0.2952E+02  0.2952E+02
      6.060  0.8974E+01  0.8974E+01  0.3188E+02  0.3188E+02
      6.336  0.5604E+01  0.5604E+01  0.3475E+02  0.3475E+02
      6.611  0.9584E+01  0.9584E+01  0.3641E+02  0.3641E+02
      6.886  0.1019E+02  0.1019E+02  0.3877E+02  0.3877E+02
      7.161  0.6602E+01  0.6602E+01  0.4140E+02  0.4140E+02
      7.437  0.9066E+01  0.9066E+01  0.4394E+02  0.4394E+02
      7.712  0.1096E+02  0.1096E+02  0.4669E+02  0.4669E+02
      7.987  0.1024E+02  0.1024E+02  0.4996E+02  0.4996E+02
      8.262  0.4844E+01  0.4844E+01  0.5159E+02  0.5159E+02
      8.538  0.1307E+01  0.1307E+01  0.5251E+02  0.5251E+02
      8.813  0.1997E+01  0.1997E+01  0.5298E+02  0.5298E+02
      9.088  0.1711E+01  0.1711E+01  0.5348E+02  0.5348E+02
      9.363  0.2409E+01  0.2409E+01  0.5413E+02  0.5413E+02
      9.638  0.1714E+01  0.1714E+01  0.5467E+02  0.5467E+02
      9.914  0.1410E+01  0.1410E+01  0.5510E+02  0.5510E+02
     10.189  0.1349E+01  0.1349E+01  0.5546E+02  0.5546E+02
     10.464  0.1293E+01  0.1293E+01  0.5584E+02  0.5584E+02
     10.739  0.1120E+01  0.1120E+01  0.5617E+02  0.5617E+02
     11.015  0.9483E+00  0.9483E+00  0.5646E+02  0.5646E+02
     11.290  0.6975E+00  0.6975E+00  0.5669E+02  0.5669E+02
     11.565  0.8939E+00  0.8939E+00  0.5686E+02  0.5686E+02
     11.840  0.1294E+01  0.1294E+01  0.5725E+02  0.5725E+02
     12.116  0.1291E+01  0.1291E+01  0.5762E+02  0.5762E+02
     12.391  0.1437E+01  0.1437E+01  0.5798E+02  0.5798E+02
     12.666  0.1674E+01  0.1674E+01  0.5842E+02  0.5842E+02
     12.941  0.1779E+01  0.1779E+01  0.5891E+02  0.5891E+02
     13.216  0.1719E+01  0.1719E+01  0.5941E+02  0.5941E+02
     13.492  0.1611E+01  0.1611E+01  0.5987E+02  0.5987E+02
     13.767  0.1511E+01  0.1511E+01  0.6029E+02  0.6029E+02
     14.042  0.1309E+01  0.1309E+01  0.6069E+02  0.6069E+02
     14.317  0.1033E+01  0.1033E+01  0.6102E+02  0.6102E+02
     14.593  0.1008E+01  0.1008E+01  0.6130E+02  0.6130E+02
     14.868  0.1527E+01  0.1527E+01  0.6164E+02  0.6164E+02
     15.143  0.1699E+01  0.1699E+01  0.6209E+02  0.6209E+02
     15.418  0.1427E+01  0.1427E+01  0.6255E+02  0.6255E+02
     15.693  0.1512E+01  0.1512E+01  0.6295E+02  0.6295E+02
     15.969  0.1490E+01  0.1490E+01  0.6338E+02  0.6338E+02
     16.244  0.2076E+01  0.2076E+01  0.6381E+02  0.6381E+02
     16.519  0.1588E+01  0.1588E+01  0.6424E+02  0.6424E+02
     16.794  0.1735E+01  0.1735E+01  0.6472E+02  0.6472E+02
     17.070  0.1882E+01  0.1882E+01  0.6519E+02  0.6519E+02
     17.345  0.2229E+01  0.2229E+01  0.6578E+02  0.6578E+02
     17.620  0.1728E+01  0.1728E+01  0.6631E+02  0.6631E+02
     17.895  0.2087E+01  0.2087E+01  0.6681E+02  0.6681E+02
     18.171  0.1298E+01  0.1298E+01  0.6729E+02  0.6729E+02
     18.446  0.8740E+00  0.8740E+00  0.6757E+02  0.6757E+02
     18.721  0.7087E+00  0.7087E+00  0.6778E+02  0.6778E+02
     18.996  0.3382E+00  0.3382E+00  0.6794E+02  0.6794E+02
     19.271  0.5888E-01  0.5888E-01  0.6799E+02  0.6799E+02
     19.547  0.1252E-01  0.1252E-01  0.6800E+02  0.6800E+02
     19.822  0.4169E-02  0.4169E-02  0.6800E+02  0.6800E+02
     20.097  0.2964E-03  0.2964E-03  0.6800E+02  0.6800E+02
     20.372  0.0000E+00  0.0000E+00  0.6800E+02  0.6800E+02
     20.648  0.0000E+00  0.0000E+00  0.6800E+02  0.6800E+02
     20.923  0.0000E+00  0.0000E+00  0.6800E+02  0.6800E+02
     21.198  0.0000E+00  0.0000E+00  0.6800E+02  0.6800E+02
     21.473  0.0000E+00  0.0000E+00  0.6800E+02  0.6800E+02
     21.748  0.0000E+00  0.0000E+00  0.6800E+02  0.6800E+02
     22.024  0.0000E+00  0.0000E+00  0.6800E+02  0.6800E+02
     22.299  0.0000E+00  0.0000E+00  0.6800E+02  0.6800E+02
     22.574  0.0000E+00  0.0000E+00  0.6800E+02  0.6800E+02
     22.849  0.0000E+00  0.0000E+00  0.6800E+02  0.6800E+02
     23.125  0.0000E+00  0.0000E+00  0.6800E+02  0.6800E+02
     23.400  0.0000E+00  0.0000E+00  0.6800E+02  0.6800E+02
     23.675  0.0000E+00  0.0000E+00  0.6800E+02  0.6800E+02
     23.950  0.0000E+00  0.0000E+00  0.6800E+02  0.6800E+02
