 running on   24 total cores
 distrk:  each k-point on   24 cores,    1 groups
 distr:  one band on    6 cores,    4 groups
 using from now: INCAR     
 vasp.5.4.4.18Apr17-6-g9f103f2a35 (build Jan 03 2018 06:08:52) complex          
  
 POSCAR found :  2 types and       9 ions
 scaLAPACK will be used
 WARNING: for PREC=h ENMAX is automatically increase by 25 %
        this was not the case for versions prior to vasp.4.4
 WARNING: for PREC=h ENMAX is automatically increase by 25 %
        this was not the case for versions prior to vasp.4.4
 LDA part: xc-table for Pade appr. of Perdew
 POSCAR, INCAR and KPOINTS ok, starting setup
 FFT: planning ...
 WAVECAR not read
 entering main loop
       N       E                     dE             d eps       ncg     rms          rms(c)
DAV:   1     0.136385422497E+04    0.13639E+04   -0.61698E+04  8712   0.188E+03
DAV:   2     0.487038417052E+02   -0.13152E+04   -0.12680E+04  7360   0.607E+02
DAV:   3    -0.527772861463E+02   -0.10148E+03   -0.92648E+02  8180   0.186E+02
DAV:   4    -0.567826145186E+02   -0.40053E+01   -0.39631E+01  8200   0.361E+01
DAV:   5    -0.568703454840E+02   -0.87731E-01   -0.87698E-01  8332   0.526E+00    0.296E+01
DAV:   6    -0.661567356929E+02   -0.92864E+01   -0.13601E+02  8160   0.117E+02    0.367E+01
DAV:   7    -0.495160992742E+02    0.16641E+02   -0.48293E+01  8484   0.841E+01    0.824E+00
DAV:   8    -0.495880393624E+02   -0.71940E-01   -0.55789E+00  9044   0.340E+01    0.698E+00
DAV:   9    -0.494643762002E+02    0.12366E+00   -0.23752E+00  8576   0.181E+01    0.369E+00
DAV:  10    -0.494362346140E+02    0.28142E-01   -0.48406E-01  8916   0.104E+01    0.308E+00
DAV:  11    -0.493678004229E+02    0.68434E-01   -0.26086E-01  8296   0.645E+00    0.677E-01
DAV:  12    -0.493738329302E+02   -0.60325E-02   -0.54337E-02  9008   0.391E+00    0.108E+00
DAV:  13    -0.493667732119E+02    0.70597E-02   -0.27391E-02  8124   0.297E+00    0.284E-01
DAV:  14    -0.493662685562E+02    0.50466E-03   -0.34825E-03  8956   0.631E-01    0.106E-01
DAV:  15    -0.493662700510E+02   -0.14947E-05   -0.35941E-04  9144   0.206E-01    0.435E-02
DAV:  16    -0.493662778778E+02   -0.78269E-05   -0.91537E-05  8500   0.829E-02    0.239E-02
DAV:  17    -0.493662847850E+02   -0.69071E-05   -0.12072E-05  9292   0.269E-02    0.176E-02
DAV:  18    -0.493662891663E+02   -0.43813E-05   -0.10038E-05 10208   0.310E-02    0.130E-02
DAV:  19    -0.493662921955E+02   -0.30292E-05   -0.81683E-06 10552   0.273E-02    0.767E-03
DAV:  20    -0.493662946897E+02   -0.24943E-05   -0.60093E-06 10176   0.220E-02    0.524E-03
DAV:  21    -0.493662957960E+02   -0.11062E-05   -0.59963E-06 10164   0.240E-02    0.296E-03
DAV:  22    -0.493662974340E+02   -0.16381E-05   -0.10655E-06  7624   0.937E-03    0.305E-03
DAV:  23    -0.493662976492E+02   -0.21519E-06   -0.79729E-07  9916   0.978E-03    0.129E-03
DAV:  24    -0.493662978995E+02   -0.25033E-06   -0.34496E-07  9860   0.468E-03    0.101E-03
DAV:  25    -0.493662979768E+02   -0.77274E-07   -0.17909E-07  7912   0.406E-03    0.603E-04
DAV:  26    -0.493662980263E+02   -0.49498E-07   -0.65343E-08  6144   0.187E-03    0.462E-04
DAV:  27    -0.493662980407E+02   -0.14432E-07   -0.24992E-08  4084   0.152E-03    0.254E-04
DAV:  28    -0.493662980496E+02   -0.88548E-08   -0.17304E-08  4472   0.879E-04
   1 F= -.49366298E+02 E0= -.49365673E+02  d E =-.493663E+02  mag=    -0.0003
 curvature:   0.00 expect dE= 0.000E+00 dE for cont linesearch  0.000E+00
 trial: gam= 0.00000 g(F)=  0.288E+00 g(S)=  0.120E+01 ort = 0.000E+00 (trialstep = 0.100E+01)
 search vector abs. value=  0.149E+01
 bond charge predicted
       N       E                     dE             d eps       ncg     rms          rms(c)
DAV:   1    -0.130162539663E+03   -0.80796E+02   -0.83177E+02  7536   0.308E+02    0.768E+01
DAV:   2    -0.110886598278E+03    0.19276E+02   -0.80145E+02  8104   0.230E+02    0.652E+01
DAV:   3    -0.549530795267E+02    0.55934E+02   -0.25267E+02  8840   0.141E+02    0.275E+01
DAV:   4    -0.537910288830E+02    0.11621E+01   -0.53778E+01  8128   0.584E+01    0.187E+01
DAV:   5    -0.505611711457E+02    0.32299E+01   -0.91220E+00  9152   0.343E+01    0.107E+01
DAV:   6    -0.501830953026E+02    0.37808E+00   -0.29747E+00  8480   0.222E+01    0.658E+00
DAV:   7    -0.498081005181E+02    0.37499E+00   -0.13065E+00  9632   0.174E+01    0.408E+00
DAV:   8    -0.497703275139E+02    0.37773E-01   -0.32213E-01  8808   0.711E+00    0.324E+00
DAV:   9    -0.497040677183E+02    0.66260E-01   -0.15484E-01  9656   0.483E+00    0.674E-01
DAV:  10    -0.497034360819E+02    0.63164E-03   -0.37263E-02  9880   0.188E+00    0.490E-01
DAV:  11    -0.497019767669E+02    0.14593E-02   -0.86045E-03  8096   0.121E+00    0.742E-02
DAV:  12    -0.497020033307E+02   -0.26564E-04   -0.64418E-04  8000   0.308E-01    0.602E-02
DAV:  13    -0.497019913313E+02    0.11999E-04   -0.88975E-05  9016   0.148E-01    0.167E-02
DAV:  14    -0.497019932919E+02   -0.19606E-05   -0.15576E-05  7908   0.375E-02    0.477E-03
DAV:  15    -0.497019933720E+02   -0.80028E-07   -0.21706E-06  9608   0.158E-02    0.371E-03
DAV:  16    -0.497019935043E+02   -0.13239E-06   -0.34710E-07  8200   0.810E-03    0.679E-04
DAV:  17    -0.497019934521E+02    0.52300E-07   -0.46978E-08  7104   0.198E-03    0.423E-04
DAV:  18    -0.497019934362E+02    0.15822E-07   -0.38698E-09  4080   0.905E-04    0.158E-04
DAV:  19    -0.497019934287E+02    0.74906E-08   -0.84880E-10  3984   0.284E-04
   2 F= -.49701993E+02 E0= -.49701246E+02  d E =-.335695E+00  mag=    -0.0000
 trial-energy change:   -0.335695  1 .order   -0.390718   -1.488386    0.706950
 step:   0.6435(harm=  0.6780)  dis= 0.02739  next Energy=   -49.830509 (dE=-0.464E+00)
 bond charge predicted
       N       E                     dE             d eps       ncg     rms          rms(c)
DAV:   1    -0.619153216100E+02   -0.12213E+02   -0.10991E+02  7920   0.101E+02    0.353E+01
DAV:   2    -0.731726917922E+02   -0.11257E+02   -0.18301E+02  8000   0.131E+02    0.394E+01
DAV:   3    -0.498572809237E+02    0.23315E+02   -0.65698E+01  8088   0.821E+01    0.471E+00
DAV:   4    -0.500894055079E+02   -0.23212E+00   -0.37544E+00  8584   0.219E+01    0.548E+00
DAV:   5    -0.499754687875E+02    0.11394E+00   -0.13148E+00  9440   0.135E+01    0.410E+00
DAV:   6    -0.499346157327E+02    0.40853E-01   -0.54126E-01  9688   0.113E+01    0.420E+00
DAV:   7    -0.498258921283E+02    0.10872E+00   -0.35331E-01  8316   0.745E+00    0.672E-01
DAV:   8    -0.498310361709E+02   -0.51440E-02   -0.60084E-02  9552   0.345E+00    0.102E+00
DAV:   9    -0.498258698526E+02    0.51663E-02   -0.23460E-02  8176   0.237E+00    0.228E-01
DAV:  10    -0.498254430610E+02    0.42679E-03   -0.29414E-03  7968   0.473E-01    0.585E-02
DAV:  11    -0.498254141928E+02    0.28868E-04   -0.17906E-04  9488   0.153E-01    0.299E-02
DAV:  12    -0.498254089892E+02    0.52036E-05   -0.46730E-05  8160   0.931E-02    0.566E-03
DAV:  13    -0.498254087706E+02    0.21862E-06   -0.51356E-06  8008   0.257E-02    0.633E-03
DAV:  14    -0.498254081704E+02    0.60024E-06   -0.13273E-06  8160   0.144E-02    0.115E-03
DAV:  15    -0.498254080939E+02    0.76474E-07   -0.10349E-07  7800   0.303E-03    0.393E-04
DAV:  16    -0.498254080686E+02    0.25309E-07   -0.12313E-08  4144   0.105E-03    0.140E-04
DAV:  17    -0.498254080618E+02    0.68103E-08   -0.29427E-09  4032   0.552E-04
   3 F= -.49825408E+02 E0= -.49824527E+02  d E =-.459110E+00  mag=    -0.0000
 curvature:  -0.34 expect dE=-0.613E-01 dE for cont linesearch -0.103E-04
 trial: gam= 0.12744 g(F)=  0.959E-01 g(S)=  0.870E-01 ort =-0.676E-02 (trialstep = 0.929E+00)
 search vector abs. value=  0.205E+00
 bond charge predicted
       N       E                     dE             d eps       ncg     rms          rms(c)
DAV:   1    -0.503300965783E+02   -0.50469E+00   -0.16959E+01  9112   0.740E+01    0.868E+00
DAV:   2    -0.510778772689E+02   -0.74778E+00   -0.11983E+01  8144   0.330E+01    0.960E+00
DAV:   3    -0.502015173266E+02    0.87636E+00   -0.44380E+00  8304   0.269E+01    0.605E+00
DAV:   4    -0.500327998797E+02    0.16872E+00   -0.11322E+00  8288   0.170E+01    0.301E+00
DAV:   5    -0.500282411225E+02    0.45588E-02   -0.51352E-01  9648   0.927E+00    0.331E+00
DAV:   6    -0.499522789921E+02    0.75962E-01   -0.21815E-01  8408   0.759E+00    0.518E-01
DAV:   7    -0.499544171468E+02   -0.21382E-02   -0.37043E-02  9120   0.228E+00    0.674E-01
DAV:   8    -0.499519758357E+02    0.24413E-02   -0.10956E-02  8104   0.166E+00    0.139E-01
DAV:   9    -0.499519776755E+02   -0.18398E-05   -0.13129E-03  8264   0.371E-01    0.588E-02
DAV:  10    -0.499519945887E+02   -0.16913E-04   -0.17417E-04  8264   0.165E-01    0.262E-02
DAV:  11    -0.499519932233E+02    0.13654E-05   -0.28848E-05  8296   0.715E-02    0.722E-03
DAV:  12    -0.499519927714E+02    0.45183E-06   -0.34918E-06  8120   0.235E-02    0.364E-03
DAV:  13    -0.499519926514E+02    0.11999E-06   -0.65485E-07  8352   0.108E-02    0.821E-04
DAV:  14    -0.499519925994E+02    0.52074E-07   -0.67849E-08  7640   0.261E-03    0.238E-04
DAV:  15    -0.499519925803E+02    0.19088E-07   -0.60377E-09  4056   0.809E-04    0.908E-05
DAV:  16    -0.499519925782E+02    0.21064E-08   -0.17406E-09  4000   0.376E-04
   4 F= -.49951993E+02 E0= -.49951281E+02  d E =-.126585E+00  mag=    -0.0000
 trial-energy change:   -0.126585  1 .order   -0.125728   -0.169077   -0.082379
 step:   1.7236(harm=  1.8111)  dis= 0.05018  next Energy=   -49.987787 (dE=-0.162E+00)
 bond charge predicted
       N       E                     dE             d eps       ncg     rms          rms(c)
DAV:   1    -0.502781227592E+02   -0.32613E+00   -0.12591E+01  9072   0.636E+01    0.748E+00
DAV:   2    -0.507881475894E+02   -0.51002E+00   -0.87696E+00  8112   0.286E+01    0.809E+00
DAV:   3    -0.501750228789E+02    0.61312E+00   -0.31275E+00  8264   0.235E+01    0.529E+00
DAV:   4    -0.500468555275E+02    0.12817E+00   -0.88074E-01  8224   0.149E+01    0.252E+00
DAV:   5    -0.500187504836E+02    0.28105E-01   -0.27876E-01  9792   0.699E+00    0.216E+00
DAV:   6    -0.499892929755E+02    0.29458E-01   -0.13086E-01  8440   0.550E+00    0.533E-01
DAV:   7    -0.499900771192E+02   -0.78414E-03   -0.25032E-02  9656   0.218E+00    0.621E-01
DAV:   8    -0.499878662881E+02    0.22108E-02   -0.90533E-03  8148   0.156E+00    0.115E-01
DAV:   9    -0.499878921920E+02   -0.25904E-04   -0.11388E-03  8120   0.318E-01    0.473E-02
DAV:  10    -0.499879013749E+02   -0.91828E-05   -0.11704E-04  8264   0.143E-01    0.190E-02
DAV:  11    -0.499879009784E+02    0.39643E-06   -0.17335E-05  8176   0.556E-02    0.444E-03
DAV:  12    -0.499879005762E+02    0.40224E-06   -0.14664E-06  8240   0.122E-02    0.147E-03
DAV:  13    -0.499879005006E+02    0.75528E-07   -0.18698E-07  9160   0.493E-03    0.396E-04
DAV:  14    -0.499879004487E+02    0.51961E-07   -0.15382E-08  4320   0.120E-03    0.123E-04
DAV:  15    -0.499879004369E+02    0.11823E-07   -0.31346E-09  4008   0.485E-04    0.668E-05
DAV:  16    -0.499879004325E+02    0.43838E-08   -0.93176E-10  3992   0.267E-04
   5 F= -.49987900E+02 E0= -.49987279E+02  d E =-.162492E+00  mag=     0.0000
 curvature:  -1.01 expect dE=-0.146E-01 dE for cont linesearch -0.690E-07
 trial: gam= 0.11384 g(F)=  0.115E-01 g(S)=  0.295E-02 ort =-0.118E-03 (trialstep = 0.109E+01)
 search vector abs. value=  0.171E-01
 bond charge predicted
       N       E                     dE             d eps       ncg     rms          rms(c)
DAV:   1    -0.497505803473E+02    0.23732E+00   -0.66469E+00  8000   0.773E+01    0.354E+00
DAV:   2    -0.501525371364E+02   -0.40196E+00   -0.49438E+00  8116   0.168E+01    0.345E+00
DAV:   3    -0.500237797072E+02    0.12876E+00   -0.66149E-01  8340   0.920E+00    0.199E+00
DAV:   4    -0.500086672550E+02    0.15112E-01   -0.13967E-01  8412   0.537E+00    0.103E+00
DAV:   5    -0.500020090394E+02    0.66582E-02   -0.25988E-02  8288   0.236E+00    0.721E-01
DAV:   6    -0.500011931961E+02    0.81584E-03   -0.28286E-02  8640   0.282E+00    0.663E-01
DAV:   7    -0.499982267663E+02    0.29664E-02   -0.94459E-03  8488   0.141E+00    0.140E-01
DAV:   8    -0.499983312059E+02   -0.10444E-03   -0.18300E-03 10168   0.666E-01    0.174E-01
DAV:   9    -0.499981423435E+02    0.18886E-03   -0.72483E-04  8264   0.425E-01    0.368E-02
DAV:  10    -0.499981405644E+02    0.17791E-05   -0.10047E-04  8320   0.953E-02    0.134E-02
DAV:  11    -0.499981410551E+02   -0.49071E-06   -0.15449E-05  8136   0.465E-02    0.610E-03
DAV:  12    -0.499981414105E+02   -0.35534E-06   -0.28746E-06  7728   0.187E-02    0.254E-03
DAV:  13    -0.499981414124E+02   -0.19318E-08   -0.31676E-07  8232   0.578E-03    0.768E-04
DAV:  14    -0.499981414460E+02   -0.33637E-07   -0.31645E-08  5720   0.233E-03    0.148E-04
DAV:  15    -0.499981414526E+02   -0.65447E-08   -0.37812E-09  4060   0.642E-04
   6 F= -.49998141E+02 E0= -.49997440E+02  d E =-.102410E-01  mag=    -0.0000
 trial-energy change:   -0.010241  1 .order   -0.010332   -0.015681   -0.004983
 step:   1.6365(harm=  1.5943)  dis= 0.01521  next Energy=   -49.999387 (dE=-0.115E-01)
 bond charge predicted
       N       E                     dE             d eps       ncg     rms          rms(c)
DAV:   1    -0.499365716631E+02    0.61570E-01   -0.16775E+00  8048   0.390E+01    0.178E+00
DAV:   2    -0.500383941969E+02   -0.10182E+00   -0.12433E+00  8104   0.842E+00    0.172E+00
DAV:   3    -0.500051014896E+02    0.33293E-01   -0.16374E-01  8156   0.458E+00    0.947E-01
DAV:   4    -0.500020292767E+02    0.30722E-02   -0.32083E-02  8136   0.281E+00    0.531E-01
DAV:   5    -0.500002019251E+02    0.18274E-02   -0.64143E-03  8188   0.117E+00    0.338E-01
DAV:   6    -0.500001474690E+02    0.54456E-04   -0.68090E-03  8712   0.144E+00    0.345E-01
DAV:   7    -0.499993524889E+02    0.79498E-03   -0.26324E-03  8448   0.809E-01    0.840E-02
DAV:   8    -0.499993549566E+02   -0.24677E-05   -0.49377E-04 10128   0.337E-01    0.741E-02
DAV:   9    -0.499993211985E+02    0.33758E-04   -0.17131E-04  8304   0.192E-01    0.209E-02
DAV:  10    -0.499993202197E+02    0.97877E-06   -0.25477E-05  8312   0.526E-02    0.694E-03
DAV:  11    -0.499993205305E+02   -0.31072E-06   -0.34287E-06  8176   0.216E-02    0.296E-03
DAV:  12    -0.499993207757E+02   -0.24521E-06   -0.76860E-07  7744   0.887E-03    0.141E-03
DAV:  13    -0.499993207997E+02   -0.23996E-07   -0.98218E-08  7960   0.316E-03    0.273E-04
DAV:  14    -0.499993208215E+02   -0.21875E-07   -0.55413E-09  4048   0.794E-04    0.866E-05
DAV:  15    -0.499993208262E+02   -0.46566E-08   -0.10848E-09  3928   0.325E-04
   7 F= -.49999321E+02 E0= -.49998586E+02  d E =-.114204E-01  mag=     0.0000
 curvature:  -0.94 expect dE=-0.600E-02 dE for cont linesearch -0.316E-05
 trial: gam= 0.46734 g(F)=  0.132E-02 g(S)=  0.509E-02 ort =-0.240E-03 (trialstep = 0.120E+01)
 search vector abs. value=  0.991E-02
 bond charge predicted
       N       E                     dE             d eps       ncg     rms          rms(c)
DAV:   1    -0.500369076341E+02   -0.37587E-01   -0.60887E+00  8216   0.674E+01    0.543E+00
DAV:   2    -0.504970098071E+02   -0.46010E+00   -0.59817E+00  8168   0.227E+01    0.644E+00
DAV:   3    -0.500896873594E+02    0.40732E+00   -0.19761E+00  8224   0.190E+01    0.418E+00
DAV:   4    -0.500102922430E+02    0.79395E-01   -0.51538E-01  8072   0.987E+00    0.101E+00
DAV:   5    -0.500085502326E+02    0.17420E-02   -0.43795E-02  9936   0.248E+00    0.969E-01
DAV:   6    -0.500037326231E+02    0.48176E-02   -0.21525E-02  8216   0.260E+00    0.534E-01
DAV:   7    -0.500043695721E+02   -0.63695E-03   -0.18180E-02  8480   0.188E+00    0.683E-01
DAV:   8    -0.500018490245E+02    0.25205E-02   -0.10985E-02  8128   0.164E+00    0.168E-01
DAV:   9    -0.500015129177E+02    0.33611E-03   -0.14412E-03  8104   0.352E-01    0.391E-02
DAV:  10    -0.500015058147E+02    0.71030E-05   -0.98547E-05  8512   0.104E-01    0.229E-02
DAV:  11    -0.500015003340E+02    0.54807E-05   -0.32199E-05  7932   0.624E-02    0.493E-03
DAV:  12    -0.500014997870E+02    0.54703E-06   -0.19380E-06  8100   0.159E-02    0.162E-03
DAV:  13    -0.500014995860E+02    0.20096E-06   -0.18968E-07  8104   0.449E-03    0.920E-04
DAV:  14    -0.500014994789E+02    0.10718E-06   -0.39682E-08  6236   0.229E-03    0.115E-04
DAV:  15    -0.500014994428E+02    0.36016E-07   -0.53836E-09  3996   0.654E-04    0.140E-04
DAV:  16    -0.500014994441E+02   -0.12769E-08   -0.11090E-09  3884   0.345E-04
   8 F= -.50001499E+02 E0= -.50000752E+02  d E =-.217862E-02  mag=    -0.0000
 trial-energy change:   -0.002179  1 .order   -0.002096   -0.007538    0.003347
 step:   0.8407(harm=  0.8293)  dis= 0.00585  next Energy=   -50.001996 (dE=-0.267E-02)
 bond charge predicted
       N       E                     dE             d eps       ncg     rms          rms(c)
DAV:   1    -0.500044708588E+02   -0.29714E-02   -0.54738E-01  8088   0.199E+01    0.159E+00
DAV:   2    -0.500424127380E+02   -0.37942E-01   -0.53867E-01  8088   0.651E+00    0.183E+00
DAV:   3    -0.500087063208E+02    0.33706E-01   -0.16347E-01  8136   0.536E+00    0.112E+00
DAV:   4    -0.500028208365E+02    0.58855E-02   -0.36760E-02  8032   0.294E+00    0.309E-01
DAV:   5    -0.500026860241E+02    0.13481E-03   -0.39289E-03  9632   0.820E-01    0.306E-01
DAV:   6    -0.500021580050E+02    0.52802E-03   -0.19146E-03  8200   0.739E-01    0.154E-01
DAV:   7    -0.500021956888E+02   -0.37684E-04   -0.14210E-03  8768   0.537E-01    0.177E-01
DAV:   8    -0.500020154289E+02    0.18026E-03   -0.69010E-04  8168   0.491E-01    0.471E-02
DAV:   9    -0.500019903553E+02    0.25074E-04   -0.12357E-04  8200   0.107E-01    0.134E-02
DAV:  10    -0.500019900637E+02    0.29165E-06   -0.71963E-06  8392   0.318E-02    0.365E-03
DAV:  11    -0.500019904252E+02   -0.36152E-06   -0.10742E-06  8216   0.131E-02    0.201E-03
DAV:  12    -0.500019904829E+02   -0.57695E-07   -0.14115E-07  7840   0.469E-03    0.409E-04
DAV:  13    -0.500019905358E+02   -0.52947E-07   -0.22727E-08  4552   0.146E-03    0.390E-04
DAV:  14    -0.500019905575E+02   -0.21650E-07   -0.71306E-09  3936   0.910E-04    0.608E-05
DAV:  15    -0.500019905589E+02   -0.13861E-08   -0.12344E-09  3832   0.256E-04
   9 F= -.50001991E+02 E0= -.50001244E+02  d E =-.266973E-02  mag=     0.0000
 curvature:  -0.65 expect dE=-0.423E-03 dE for cont linesearch -0.772E-07
 trial: gam= 0.08400 g(F)=  0.480E-03 g(S)=  0.169E-03 ort =-0.343E-04 (trialstep = 0.113E+01)
 search vector abs. value=  0.713E-03
 bond charge predicted
       N       E                     dE             d eps       ncg     rms          rms(c)
DAV:   1    -0.499914353647E+02    0.10555E-01   -0.25537E-01 10816   0.152E+01    0.401E-01
DAV:   2    -0.500038362573E+02   -0.12401E-01   -0.13614E-01  7960   0.252E+00    0.378E-01
DAV:   3    -0.500035045762E+02    0.33168E-03   -0.11441E-02  8272   0.153E+00    0.386E-01
DAV:   4    -0.500027890920E+02    0.71548E-03   -0.44337E-03  8152   0.109E+00    0.160E-01
DAV:   5    -0.500025479088E+02    0.24118E-03   -0.59603E-04 10464   0.319E-01    0.589E-02
DAV:   6    -0.500026717539E+02   -0.12385E-03   -0.63858E-04  9032   0.456E-01    0.153E-01
DAV:   7    -0.500025152529E+02    0.15650E-03   -0.40804E-04  8408   0.373E-01    0.139E-02
DAV:   8    -0.500025187803E+02   -0.35275E-05   -0.41182E-05  9744   0.761E-02    0.178E-02
DAV:   9    -0.500025177520E+02    0.10283E-05   -0.98716E-06  8064   0.508E-02    0.477E-03
DAV:  10    -0.500025178751E+02   -0.12310E-06   -0.11386E-06  8128   0.124E-02    0.198E-03
DAV:  11    -0.500025179842E+02   -0.10908E-06   -0.12775E-07  8336   0.479E-03    0.604E-04
DAV:  12    -0.500025180300E+02   -0.45853E-07   -0.14427E-08  4032   0.161E-03    0.180E-04
DAV:  13    -0.500025180297E+02    0.37107E-09   -0.46941E-09  3864   0.696E-04
  10 F= -.50002518E+02 E0= -.50001765E+02  d E =-.527471E-03  mag=     0.0000
 trial-energy change:   -0.000527  1 .order   -0.000530   -0.000727   -0.000333
 step:   2.1708(harm=  2.0795)  dis= 0.00473  next Energy=   -50.002670 (dE=-0.680E-03)
 bond charge predicted
       N       E                     dE             d eps       ncg     rms          rms(c)
DAV:   1    -0.499931080191E+02    0.94100E-02   -0.21965E-01 10784   0.141E+01    0.372E-01
DAV:   2    -0.500037732944E+02   -0.10665E-01   -0.11710E-01  7960   0.233E+00    0.348E-01
DAV:   3    -0.500034955612E+02    0.27773E-03   -0.97756E-03  8272   0.141E+00    0.357E-01
DAV:   4    -0.500028885572E+02    0.60700E-03   -0.37820E-03  8152   0.100E+00    0.149E-01
DAV:   5    -0.500026812855E+02    0.20727E-03   -0.52079E-04 10448   0.299E-01    0.558E-02
DAV:   6    -0.500027920832E+02   -0.11080E-03   -0.57268E-04  8992   0.432E-01    0.144E-01
DAV:   7    -0.500026524241E+02    0.13966E-03   -0.36067E-04  8408   0.351E-01    0.129E-02
DAV:   8    -0.500026555456E+02   -0.31215E-05   -0.36167E-05  9712   0.712E-02    0.166E-02
DAV:   9    -0.500026546816E+02    0.86399E-06   -0.85912E-06  8072   0.475E-02    0.448E-03
DAV:  10    -0.500026547848E+02   -0.10320E-06   -0.98608E-07  8144   0.116E-02    0.185E-03
DAV:  11    -0.500026548901E+02   -0.10528E-06   -0.11067E-07  8352   0.443E-03    0.570E-04
DAV:  12    -0.500026549321E+02   -0.42022E-07   -0.12627E-08  4016   0.151E-03    0.167E-04
DAV:  13    -0.500026549318E+02    0.28012E-09   -0.40445E-09  3840   0.648E-04
  11 F= -.50002655E+02 E0= -.50001898E+02  d E =-.664373E-03  mag=    -0.0000
 curvature:  -1.14 expect dE=-0.102E-03 dE for cont linesearch -0.133E-05
 trial: gam= 0.17505 g(F)=  0.487E-04 g(S)=  0.409E-04 ort =-0.289E-04 (trialstep = 0.134E+01)
 search vector abs. value=  0.101E-03
 bond charge predicted
       N       E                     dE             d eps       ncg     rms          rms(c)
DAV:   1    -0.500028822721E+02   -0.22734E-03   -0.51138E-02  8232   0.566E+00    0.469E-01
DAV:   2    -0.500061244187E+02   -0.32421E-02   -0.46114E-02  8144   0.192E+00    0.525E-01
DAV:   3    -0.500033657794E+02    0.27586E-02   -0.13291E-02  8136   0.151E+00    0.339E-01
DAV:   4    -0.500028517042E+02    0.51408E-03   -0.35592E-03  8080   0.980E-01    0.110E-01
DAV:   5    -0.500027747395E+02    0.76965E-04   -0.47328E-04 10152   0.302E-01    0.909E-02
DAV:   6    -0.500027348436E+02    0.39896E-04   -0.34231E-04  8392   0.335E-01    0.479E-02
DAV:   7    -0.500027230501E+02    0.11793E-04   -0.69869E-05  8824   0.132E-01    0.247E-02
DAV:   8    -0.500027195257E+02    0.35244E-05   -0.16603E-05  8280   0.718E-02    0.703E-03
DAV:   9    -0.500027188550E+02    0.67076E-06   -0.32468E-06  8272   0.196E-02    0.338E-03
DAV:  10    -0.500027186676E+02    0.18737E-06   -0.51885E-07  8192   0.973E-03    0.995E-04
DAV:  11    -0.500027186008E+02    0.66797E-07   -0.63736E-08  7320   0.307E-03    0.336E-04
DAV:  12    -0.500027185839E+02    0.16938E-07   -0.62052E-09  3888   0.781E-04    0.829E-05
DAV:  13    -0.500027185739E+02    0.99135E-08   -0.13126E-09  3776   0.325E-04
  12 F= -.50002719E+02 E0= -.50001968E+02  d E =-.636421E-04  mag=     0.0000
 trial-energy change:   -0.000064  1 .order   -0.000059   -0.000113   -0.000005
 step:   1.3864(harm=  1.3999)  dis= 0.00094  next Energy=   -50.002719 (dE=-0.637E-04)
 bond charge predicted
       N       E                     dE             d eps       ncg     rms          rms(c)
DAV:   1    -0.500027190036E+02   -0.41970E-06   -0.75748E-05  8232   0.218E-01    0.180E-02
DAV:   2    -0.500027245438E+02   -0.55402E-05   -0.68325E-05  8144   0.738E-02    0.201E-02
DAV:   3    -0.500027200954E+02    0.44483E-05   -0.19518E-05  8144   0.576E-02    0.130E-02
DAV:   4    -0.500027192817E+02    0.81378E-06   -0.52270E-06  8064   0.371E-02    0.425E-03
DAV:   5    -0.500027190549E+02    0.22673E-06   -0.67892E-07 10264   0.114E-02    0.341E-03
DAV:   6    -0.500027189664E+02    0.88563E-07   -0.49657E-07  8384   0.129E-02    0.190E-03
DAV:   7    -0.500027189150E+02    0.51310E-07   -0.10331E-07  7184   0.513E-03    0.919E-04
DAV:   8    -0.500027189064E+02    0.86147E-08   -0.22282E-08  3704   0.272E-03
  13 F= -.50002719E+02 E0= -.50001969E+02  d E =-.639746E-04  mag=    -0.0000
 curvature:  -0.80 expect dE=-0.410E-04 dE for cont linesearch -0.118E-08
 trial: gam= 0.50521 g(F)=  0.852E-05 g(S)=  0.426E-04 ort = 0.387E-06 (trialstep = 0.135E+01)
 search vector abs. value=  0.774E-04
 bond charge predicted
       N       E                     dE             d eps       ncg     rms          rms(c)
DAV:   1    -0.500035789561E+02   -0.86004E-03   -0.40051E-02  8080   0.436E+00    0.453E-01
DAV:   2    -0.500058386333E+02   -0.22597E-02   -0.37642E-02  8120   0.179E+00    0.491E-01
DAV:   3    -0.500029768949E+02    0.28617E-02   -0.10842E-02  8136   0.109E+00    0.188E-01
DAV:   4    -0.500029135350E+02    0.63360E-04   -0.15350E-03  8168   0.671E-01    0.140E-01
DAV:   5    -0.500027549589E+02    0.15858E-03   -0.36465E-04  9880   0.304E-01    0.528E-02
DAV:   6    -0.500027684174E+02   -0.13458E-04   -0.29237E-04  8704   0.284E-01    0.697E-02
DAV:   7    -0.500027417315E+02    0.26686E-04   -0.11696E-04  8320   0.175E-01    0.189E-02
DAV:   8    -0.500027400634E+02    0.16680E-05   -0.14751E-05  9752   0.619E-02    0.796E-03
DAV:   9    -0.500027403385E+02   -0.27507E-06   -0.30880E-06  8144   0.222E-02    0.346E-03
DAV:  10    -0.500027405951E+02   -0.25660E-06   -0.46589E-07  8168   0.692E-03    0.113E-03
DAV:  11    -0.500027407181E+02   -0.12300E-06   -0.43892E-08  6920   0.265E-03    0.290E-04
DAV:  12    -0.500027407484E+02   -0.30341E-07   -0.69774E-09  3896   0.976E-04    0.119E-04
DAV:  13    -0.500027407572E+02   -0.88039E-08   -0.21555E-09  3760   0.448E-04
  14 F= -.50002741E+02 E0= -.50001998E+02  d E =-.218508E-04  mag=    -0.0000
 trial-energy change:   -0.000022  1 .order   -0.000026   -0.000069    0.000017
 step:   1.0060(harm=  1.0801)  dis= 0.00047  next Energy=   -50.002743 (dE=-0.241E-04)
 bond charge predicted
       N       E                     dE             d eps       ncg     rms          rms(c)
DAV:   1    -0.500027955789E+02   -0.54830E-04   -0.25437E-03  8064   0.110E+00    0.114E-01
DAV:   2    -0.500029445736E+02   -0.14899E-03   -0.23851E-03  8120   0.451E-01    0.124E-01
DAV:   3    -0.500027599188E+02    0.18465E-03   -0.68863E-04  8136   0.274E-01    0.468E-02
DAV:   4    -0.500027558655E+02    0.40533E-05   -0.96309E-05  8200   0.168E-01    0.355E-02
DAV:   5    -0.500027446468E+02    0.11219E-04   -0.23054E-05  9896   0.768E-02    0.129E-02
DAV:   6    -0.500027455772E+02   -0.93036E-06   -0.18449E-05  8720   0.709E-02    0.178E-02
DAV:   7    -0.500027436496E+02    0.19276E-05   -0.75419E-06  8320   0.453E-02    0.463E-03
DAV:   8    -0.500027435174E+02    0.13217E-06   -0.91813E-07  9872   0.152E-02    0.204E-03
DAV:   9    -0.500027433477E+02    0.16967E-06   -0.19768E-07  8160   0.571E-03    0.877E-04
DAV:  10    -0.500027432756E+02    0.72097E-07   -0.28092E-08  5192   0.178E-03    0.291E-04
DAV:  11    -0.500027432442E+02    0.31388E-07   -0.41466E-09  3736   0.765E-04    0.834E-05
DAV:  12    -0.500027432366E+02    0.76543E-08   -0.10769E-09  3704   0.332E-04
  15 F= -.50002743E+02 E0= -.50001998E+02  d E =-.243302E-04  mag=    -0.0000
 curvature:  -0.75 expect dE=-0.613E-05 dE for cont linesearch -0.116E-06
 trial: gam= 0.12488 g(F)=  0.330E-05 g(S)=  0.487E-05 ort = 0.346E-05 (trialstep = 0.128E+01)
 search vector abs. value=  0.102E-04
 bond charge predicted
       N       E                     dE             d eps       ncg     rms          rms(c)
DAV:   1    -0.500027285576E+02    0.14687E-04   -0.41823E-03  8520   0.145E+00    0.111E-01
DAV:   2    -0.500029067750E+02   -0.17822E-03   -0.27251E-03  8080   0.463E-01    0.112E-01
DAV:   3    -0.500028011727E+02    0.10560E-03   -0.62534E-04  8216   0.354E-01    0.845E-02
DAV:   4    -0.500027706356E+02    0.30537E-04   -0.23714E-04  8112   0.274E-01    0.433E-02
DAV:   5    -0.500027640980E+02    0.65376E-05   -0.85477E-05  9504   0.147E-01    0.443E-02
DAV:   6    -0.500027517051E+02    0.12393E-04   -0.54211E-05  8480   0.126E-01    0.877E-03
DAV:   7    -0.500027523378E+02   -0.63267E-06   -0.86433E-06  9976   0.420E-02    0.124E-02
DAV:   8    -0.500027513914E+02    0.94640E-06   -0.32581E-06  8200   0.333E-02    0.183E-03
DAV:   9    -0.500027512992E+02    0.92139E-07   -0.37226E-07  8904   0.545E-03    0.950E-04
DAV:  10    -0.500027512767E+02    0.22501E-07   -0.42541E-08  6128   0.299E-03    0.378E-04
DAV:  11    -0.500027512640E+02    0.12704E-07   -0.63350E-09  3808   0.108E-03    0.696E-05
DAV:  12    -0.500027512607E+02    0.33579E-08   -0.12507E-09  3696   0.296E-04
  16 F= -.50002751E+02 E0= -.50002010E+02  d E =-.802407E-05  mag=    -0.0000
 trial-energy change:   -0.000008  1 .order   -0.000007   -0.000011   -0.000004
 step:   1.7175(harm=  1.9983)  dis= 0.00042  next Energy=   -50.002752 (dE=-0.873E-05)
 bond charge predicted
       N       E                     dE             d eps       ncg     rms          rms(c)
DAV:   1    -0.500027496011E+02    0.16629E-05   -0.49643E-04  8520   0.498E-01    0.383E-02
DAV:   2    -0.500027716166E+02   -0.22016E-04   -0.32362E-04  8080   0.159E-01    0.387E-02
DAV:   3    -0.500027585778E+02    0.13039E-04   -0.74046E-05  8216   0.121E-01    0.291E-02
DAV:   4    -0.500027548772E+02    0.37006E-05   -0.27995E-05  8112   0.945E-02    0.149E-02
DAV:   5    -0.500027540274E+02    0.84975E-06   -0.10159E-05  9488   0.507E-02    0.153E-02
DAV:   6    -0.500027525154E+02    0.15120E-05   -0.64410E-06  8480   0.436E-02    0.302E-03
DAV:   7    -0.500027525778E+02   -0.62377E-07   -0.10235E-06  9976   0.144E-02    0.427E-03
DAV:   8    -0.500027524660E+02    0.11177E-06   -0.38511E-07  8200   0.115E-02    0.630E-04
DAV:   9    -0.500027524317E+02    0.34393E-07   -0.42687E-08  6400   0.188E-03    0.328E-04
DAV:  10    -0.500027524229E+02    0.87712E-08   -0.54511E-09  3704   0.111E-03
  17 F= -.50002752E+02 E0= -.50002012E+02  d E =-.918629E-05  mag=    -0.0000
 curvature:  -1.01 expect dE=-0.239E-05 dE for cont linesearch -0.104E-06
 trial: gam= 0.22972 g(F)=  0.746E-06 g(S)=  0.163E-05 ort = 0.102E-05 (trialstep = 0.137E+01)
 search vector abs. value=  0.338E-05
 reached required accuracy - stopping structural energy minimisation
 writing wavefunctions
