       N       E                     dE             d eps       ncg     rms          rms(c)
DAV:   1     0.111361451843E+04    0.11136E+04   -0.51719E+04 10280   0.176E+03
DAV:   2     0.322728878658E+02   -0.10813E+04   -0.10368E+04  8700   0.571E+02
DAV:   3    -0.471290359010E+02   -0.79402E+02   -0.74074E+02  9848   0.172E+02
DAV:   4    -0.499564954618E+02   -0.28275E+01   -0.28074E+01  9644   0.310E+01
DAV:   5    -0.500246521480E+02   -0.68157E-01   -0.68142E-01  9784   0.465E+00    0.291E+01
DAV:   6    -0.594189163605E+02   -0.93943E+01   -0.12216E+02  9736   0.113E+02    0.347E+01
DAV:   7    -0.436161995783E+02    0.15803E+02   -0.45655E+01  9656   0.729E+01    0.305E+00
DAV:   8    -0.438634622418E+02   -0.24726E+00   -0.25773E+00 10616   0.168E+01    0.483E+00
DAV:   9    -0.437105882593E+02    0.15287E+00   -0.48596E-01  9996   0.126E+01    0.195E+00
DAV:  10    -0.436768350812E+02    0.33753E-01   -0.17785E-01 10204   0.402E+00    0.628E-01
DAV:  11    -0.436727308905E+02    0.41042E-02   -0.15532E-02  9772   0.130E+00    0.208E-01
DAV:  12    -0.436727189000E+02    0.11991E-04   -0.22649E-03 10236   0.416E-01    0.802E-02
DAV:  13    -0.436726673228E+02    0.51577E-04   -0.21435E-04 11248   0.130E-01    0.282E-02
DAV:  14    -0.436726627854E+02    0.45375E-05   -0.38743E-05 10760   0.508E-02    0.101E-02
DAV:  15    -0.436726621929E+02    0.59248E-06   -0.41095E-06  9228   0.166E-02    0.415E-03
DAV:  16    -0.436726617210E+02    0.47185E-06   -0.28007E-07  9856   0.392E-03    0.151E-03
DAV:  17    -0.436726614260E+02    0.29503E-06   -0.58735E-08  9212   0.206E-03    0.412E-04
DAV:  18    -0.436726613732E+02    0.52834E-07   -0.10143E-08  5076   0.759E-04    0.233E-04
DAV:  19    -0.436726613775E+02   -0.43328E-08   -0.17039E-09  4864   0.399E-04
   1 F= -.43672661E+02 E0= -.43672168E+02  d E =-.436727E+02  mag=    -0.0000
       N       E                     dE             d eps       ncg     rms          rms(c)
DAV:   1    -0.127096460959E+03   -0.83424E+02   -0.87766E+02  8928   0.325E+02    0.763E+01
DAV:   2    -0.101500337560E+03    0.25596E+02   -0.71525E+02  9640   0.229E+02    0.643E+01
DAV:   3    -0.501657701945E+02    0.51335E+02   -0.22919E+02  9976   0.144E+02    0.252E+01
DAV:   4    -0.469600750985E+02    0.32057E+01   -0.25469E+01 10128   0.622E+01    0.236E+01
DAV:   5    -0.447642536208E+02    0.21958E+01   -0.27280E+01  9920   0.376E+01    0.722E+00
DAV:   6    -0.440978459764E+02    0.66641E+00   -0.15996E+00  9856   0.152E+01    0.312E+00
DAV:   7    -0.439911349087E+02    0.10671E+00   -0.37304E-01 10032   0.596E+00    0.683E-01
DAV:   8    -0.439906930396E+02    0.44187E-03   -0.82660E-02  9312   0.256E+00    0.386E-01
DAV:   9    -0.439902007618E+02    0.49228E-03   -0.66189E-03  9664   0.975E-01    0.187E-01
DAV:  10    -0.439900815029E+02    0.11926E-03   -0.74998E-04 10036   0.297E-01    0.634E-02
DAV:  11    -0.439900738126E+02    0.76903E-05   -0.17468E-04 12044   0.137E-01    0.301E-02
DAV:  12    -0.439900699507E+02    0.38619E-05   -0.36503E-05  9492   0.731E-02    0.261E-03
DAV:  13    -0.439900704474E+02   -0.49673E-06   -0.21520E-06  9260   0.110E-02    0.681E-04
DAV:  14    -0.439900705197E+02   -0.72316E-07   -0.57603E-08 10060   0.238E-03    0.690E-04
DAV:  15    -0.439900705246E+02   -0.49040E-08   -0.12971E-08  5208   0.127E-03
   2 F= -.43990071E+02 E0= -.43990035E+02  d E =-.317409E+00  mag=     0.0000
       N       E                     dE             d eps       ncg     rms          rms(c)
DAV:   1    -0.589977329044E+02   -0.15008E+02   -0.13380E+02  9280   0.110E+02    0.395E+01
DAV:   2    -0.746647843371E+02   -0.15667E+02   -0.22568E+02  9496   0.156E+02    0.433E+01
DAV:   3    -0.443397407198E+02    0.30325E+02   -0.79787E+01  9528   0.929E+01    0.437E+00
DAV:   4    -0.443435697861E+02   -0.38291E-02   -0.40758E+00 10360   0.134E+01    0.560E+00
DAV:   5    -0.443531286352E+02   -0.95588E-02   -0.17413E+00  9624   0.141E+01    0.522E+00
DAV:   6    -0.441449461515E+02    0.20818E+00   -0.42887E-01 10056   0.931E+00    0.502E-01
DAV:   7    -0.441462009982E+02   -0.12548E-02   -0.43348E-02 10720   0.164E+00    0.369E-01
DAV:   8    -0.441457131844E+02    0.48781E-03   -0.50766E-03  9592   0.772E-01    0.165E-01
DAV:   9    -0.441454656727E+02    0.24751E-03   -0.91030E-04 10280   0.273E-01    0.589E-02
DAV:  10    -0.441454394289E+02    0.26244E-04   -0.81449E-05 10848   0.908E-02    0.109E-02
DAV:  11    -0.441454394861E+02   -0.57251E-07   -0.13549E-05  9840   0.258E-02    0.379E-03
DAV:  12    -0.441454397213E+02   -0.23522E-06   -0.16709E-06 10312   0.108E-02    0.749E-03
DAV:  13    -0.441454389164E+02    0.80496E-06   -0.18662E-06  9736   0.136E-02    0.572E-04
DAV:  14    -0.441454389654E+02   -0.49025E-07   -0.76138E-08  8492   0.197E-03    0.199E-04
DAV:  15    -0.441454389553E+02    0.10132E-07   -0.20882E-09  4792   0.389E-04    0.380E-05
DAV:  16    -0.441454389559E+02   -0.66575E-09   -0.51920E-10  4640   0.224E-04
   3 F= -.44145439E+02 E0= -.44144964E+02  d E =-.472778E+00  mag=     0.0000
       N       E                     dE             d eps       ncg     rms          rms(c)
DAV:   1    -0.454412803086E+02   -0.12958E+01   -0.24559E+01  9520   0.369E+01    0.105E+01
DAV:   2    -0.458549365444E+02   -0.41366E+00   -0.11585E+01  9688   0.329E+01    0.115E+01
DAV:   3    -0.444153429555E+02    0.14396E+01   -0.51365E+00  9600   0.256E+01    0.419E+00
DAV:   4    -0.446263072196E+02   -0.21096E+00   -0.16546E+00  9960   0.216E+01    0.838E+00
DAV:   5    -0.442586323461E+02    0.36767E+00   -0.19995E+00 10800   0.109E+01    0.972E-01
DAV:   6    -0.442550205235E+02    0.36118E-02   -0.66729E-02  9216   0.201E+00    0.328E-01
DAV:   7    -0.442544235264E+02    0.59700E-03   -0.58460E-03 11392   0.608E-01    0.843E-02
DAV:   8    -0.442545371831E+02   -0.11366E-03   -0.11340E-03  9308   0.274E-01    0.251E-02
DAV:   9    -0.442545376581E+02   -0.47504E-06   -0.50980E-05  9760   0.689E-02    0.246E-02
DAV:  10    -0.442545325746E+02    0.50834E-05   -0.14786E-05 10160   0.442E-02    0.333E-03
DAV:  11    -0.442545325340E+02    0.40622E-07   -0.18681E-06  9224   0.909E-03    0.201E-03
DAV:  12    -0.442545324446E+02    0.89472E-07   -0.40271E-07  9792   0.486E-03    0.107E-03
DAV:  13    -0.442545324374E+02    0.71086E-08   -0.55558E-08  8000   0.217E-03
   4 F= -.44254532E+02 E0= -.44254471E+02  d E =-.109093E+00  mag=     0.0000
       N       E                     dE             d eps       ncg     rms          rms(c)
DAV:   1    -0.451763584735E+02   -0.92183E+00   -0.18139E+01  9472   0.320E+01    0.902E+00
DAV:   2    -0.454568156541E+02   -0.28046E+00   -0.85306E+00  9704   0.285E+01    0.972E+00
DAV:   3    -0.444079465145E+02    0.10489E+01   -0.36103E+00  9616   0.214E+01    0.351E+00
DAV:   4    -0.445617087050E+02   -0.15376E+00   -0.13463E+00  9876   0.192E+01    0.709E+00
DAV:   5    -0.442936371490E+02    0.26807E+00   -0.14328E+00 10456   0.948E+00    0.774E-01
DAV:   6    -0.442915409221E+02    0.20962E-02   -0.45972E-02  9152   0.160E+00    0.280E-01
DAV:   7    -0.442910686581E+02    0.47226E-03   -0.40613E-03 11584   0.524E-01    0.737E-02
DAV:   8    -0.442911413292E+02   -0.72671E-04   -0.83791E-04  9388   0.240E-01    0.206E-02
DAV:   9    -0.442911384309E+02    0.28983E-05   -0.32084E-05  9664   0.490E-02    0.172E-02
DAV:  10    -0.442911361527E+02    0.22782E-05   -0.82010E-06  9908   0.288E-02    0.405E-03
DAV:  11    -0.442911359529E+02    0.19988E-06   -0.11216E-06  9584   0.676E-03    0.132E-03
DAV:  12    -0.442911359124E+02    0.40422E-07   -0.12617E-07  9312   0.254E-03    0.448E-04
DAV:  13    -0.442911358996E+02    0.12824E-07   -0.12279E-08  5416   0.107E-03    0.112E-04
DAV:  14    -0.442911358992E+02    0.38926E-09   -0.19590E-09  4664   0.312E-04
   5 F= -.44291136E+02 E0= -.44291625E+02  d E =-.145697E+00  mag=    -0.0000
       N       E                     dE             d eps       ncg     rms          rms(c)
DAV:   1    -0.443926797275E+02   -0.10154E+00   -0.20428E+00  9508   0.109E+01    0.292E+00
DAV:   2    -0.444073000276E+02   -0.14620E-01   -0.82789E-01  9716   0.919E+00    0.300E+00
DAV:   3    -0.443049175818E+02    0.10238E+00   -0.33027E-01  9596   0.621E+00    0.997E-01
DAV:   4    -0.443257438574E+02   -0.20826E-01   -0.16113E-01  9908   0.494E+00    0.227E+00
DAV:   5    -0.442932468938E+02    0.32497E-01   -0.12100E-01 10016   0.352E+00    0.159E-01
DAV:   6    -0.442934276419E+02   -0.18075E-03   -0.49407E-03  9224   0.422E-01    0.585E-02
DAV:   7    -0.442934133483E+02    0.14294E-04   -0.20363E-04 11772   0.133E-01    0.241E-02
DAV:   8    -0.442934144283E+02   -0.10800E-05   -0.23489E-05  9912   0.408E-02    0.498E-03
DAV:   9    -0.442934140600E+02    0.36836E-06   -0.16338E-06 11116   0.107E-02    0.264E-03
DAV:  10    -0.442934138634E+02    0.19658E-06   -0.20260E-07  9332   0.486E-03    0.365E-04
DAV:  11    -0.442934138494E+02    0.14050E-07   -0.15272E-08  5492   0.126E-03    0.136E-04
DAV:  12    -0.442934138428E+02    0.65957E-08   -0.25226E-09  4732   0.379E-04
   6 F= -.44293414E+02 E0= -.44294068E+02  d E =-.147975E+00  mag=     0.0000
       N       E                     dE             d eps       ncg     rms          rms(c)
DAV:   1    -0.442642225546E+02    0.29191E-01   -0.81749E+00  9984   0.725E+01    0.560E+00
DAV:   2    -0.448485831615E+02   -0.58436E+00   -0.76267E+00  9816   0.244E+01    0.697E+00
DAV:   3    -0.444158671809E+02    0.43272E+00   -0.26905E+00  9616   0.158E+01    0.383E+00
DAV:   4    -0.443250190026E+02    0.90848E-01   -0.43583E-01  9920   0.105E+01    0.141E+00
DAV:   5    -0.443033593300E+02    0.21660E-01   -0.56678E-02  9916   0.235E+00    0.247E-01
DAV:   6    -0.443028572536E+02    0.50208E-03   -0.57288E-03  9692   0.549E-01    0.834E-02
DAV:   7    -0.443028134331E+02    0.43821E-04   -0.57579E-04  9844   0.210E-01    0.611E-02
DAV:   8    -0.443028040032E+02    0.94299E-05   -0.14590E-04 10864   0.111E-01    0.215E-02
DAV:   9    -0.443028008725E+02    0.31307E-05   -0.17954E-05 10068   0.499E-02    0.177E-03
DAV:  10    -0.443028009369E+02   -0.64425E-07   -0.89788E-07  9164   0.736E-03    0.114E-03
DAV:  11    -0.443028009624E+02   -0.25459E-07   -0.10594E-07 11220   0.291E-03    0.398E-04
DAV:  12    -0.443028009742E+02   -0.11863E-07   -0.84991E-09  4832   0.916E-04    0.130E-04
DAV:  13    -0.443028009766E+02   -0.23683E-08   -0.19367E-09  4732   0.365E-04
   7 F= -.44302801E+02 E0= -.44303183E+02  d E =-.938713E-02  mag=    -0.0000
       N       E                     dE             d eps       ncg     rms          rms(c)
DAV:   1    -0.443026322422E+02    0.16873E-03   -0.52557E-02 10112   0.590E+00    0.451E-01
DAV:   2    -0.443063359684E+02   -0.37037E-02   -0.47771E-02  9808   0.196E+00    0.543E-01
DAV:   3    -0.443035287477E+02    0.28072E-02   -0.15963E-02  9648   0.134E+00    0.315E-01
DAV:   4    -0.443030099747E+02    0.51877E-03   -0.35277E-03 10248   0.727E-01    0.116E-01
DAV:   5    -0.443028635756E+02    0.14640E-03   -0.32898E-04 10984   0.191E-01    0.197E-02
DAV:   6    -0.443028616487E+02    0.19269E-05   -0.33423E-05  9584   0.405E-02    0.644E-03
DAV:   7    -0.443028616569E+02   -0.82437E-08   -0.32918E-06  9888   0.148E-02    0.387E-03
DAV:   8    -0.443028618460E+02   -0.18909E-06   -0.58600E-07 10536   0.609E-03    0.112E-03
DAV:   9    -0.443028619081E+02   -0.62144E-07   -0.64266E-08  8696   0.254E-03    0.237E-04
DAV:  10    -0.443028619088E+02   -0.69485E-09   -0.43694E-09  4792   0.796E-04
   8 F= -.44302862E+02 E0= -.44303212E+02  d E =-.944807E-02  mag=    -0.0000
       N       E                     dE             d eps       ncg     rms          rms(c)
DAV:   1    -0.443133215432E+02   -0.10460E-01   -0.42321E+00 10032   0.566E+01    0.457E+00
DAV:   2    -0.446754747389E+02   -0.36215E+00   -0.45601E+00  9864   0.194E+01    0.546E+00
DAV:   3    -0.443306479854E+02    0.34483E+00   -0.13396E+00  9576   0.128E+01    0.210E+00
DAV:   4    -0.443144946243E+02    0.16153E-01   -0.20178E-01 10352   0.479E+00    0.971E-01
DAV:   5    -0.443071128535E+02    0.73818E-02   -0.13190E-02 10016   0.140E+00    0.376E-01
DAV:   6    -0.443056194114E+02    0.14934E-02   -0.37266E-03  9872   0.510E-01    0.715E-02
DAV:   7    -0.443056021381E+02    0.17273E-04   -0.53942E-04  9424   0.251E-01    0.373E-02
DAV:   8    -0.443055963448E+02    0.57933E-05   -0.60730E-05  9864   0.928E-02    0.138E-02
DAV:   9    -0.443055946119E+02    0.17330E-05   -0.65685E-06  9608   0.291E-02    0.171E-03
DAV:  10    -0.443055944693E+02    0.14254E-06   -0.51773E-07 10072   0.533E-03    0.580E-04
DAV:  11    -0.443055943994E+02    0.69900E-07   -0.26895E-08  6944   0.119E-03    0.357E-04
DAV:  12    -0.443055943831E+02    0.16353E-07   -0.47704E-09  4808   0.803E-04    0.656E-05
DAV:  13    -0.443055943789E+02    0.42128E-08   -0.14012E-09  4704   0.285E-04
   9 F= -.44305594E+02 E0= -.44305767E+02  d E =-.273247E-02  mag=     0.0000
       N       E                     dE             d eps       ncg     rms          rms(c)
DAV:   1    -0.443059201512E+02   -0.32577E-03   -0.13870E-01  9904   0.102E+01    0.808E-01
DAV:   2    -0.443170131446E+02   -0.11093E-01   -0.14317E-01  9872   0.345E+00    0.973E-01
DAV:   3    -0.443070614970E+02    0.99516E-02   -0.47800E-02  9584   0.227E+00    0.460E-01
DAV:   4    -0.443059903363E+02    0.10712E-02   -0.76690E-03 10240   0.106E+00    0.167E-01
DAV:   5    -0.443057751300E+02    0.21521E-03   -0.43065E-04 10040   0.230E-01    0.677E-02
DAV:   6    -0.443057319337E+02    0.43196E-04   -0.10561E-04 10064   0.882E-02    0.106E-02
DAV:   7    -0.443057325783E+02   -0.64461E-06   -0.16144E-05  9480   0.379E-02    0.593E-03
DAV:   8    -0.443057325832E+02   -0.48713E-08   -0.13410E-06  9776   0.123E-02    0.151E-03
DAV:   9    -0.443057327282E+02   -0.14495E-06   -0.12124E-07  9496   0.335E-03    0.309E-04
DAV:  10    -0.443057327501E+02   -0.21966E-07   -0.82527E-09  4832   0.105E-03    0.147E-04
DAV:  11    -0.443057327551E+02   -0.49949E-08   -0.18369E-09  4656   0.391E-04
  10 F= -.44305733E+02 E0= -.44305937E+02  d E =-.287085E-02  mag=     0.0000
       N       E                     dE             d eps       ncg     rms          rms(c)
DAV:   1    -0.443070783083E+02   -0.13456E-02   -0.26252E-02  9576   0.345E+00    0.439E-01
DAV:   2    -0.443093846678E+02   -0.23064E-02   -0.32356E-02  9648   0.174E+00    0.537E-01
DAV:   3    -0.443060484559E+02    0.33362E-02   -0.12843E-02  9608   0.114E+00    0.195E-01
DAV:   4    -0.443058842102E+02    0.16425E-03   -0.14897E-03 10096   0.452E-01    0.798E-02
DAV:   5    -0.443058241621E+02    0.60048E-04   -0.15596E-04 10248   0.128E-01    0.132E-02
DAV:   6    -0.443058230548E+02    0.11073E-05   -0.10098E-05  9664   0.251E-02    0.596E-03
DAV:   7    -0.443058232086E+02   -0.15377E-06   -0.13612E-06 10160   0.814E-03    0.218E-03
DAV:   8    -0.443058233819E+02   -0.17335E-06   -0.41324E-07  9632   0.535E-03    0.116E-03
DAV:   9    -0.443058234280E+02   -0.46057E-07   -0.63280E-08  8600   0.238E-03    0.113E-04
DAV:  10    -0.443058234402E+02   -0.12180E-07   -0.30083E-09  4728   0.535E-04    0.485E-05
DAV:  11    -0.443058234436E+02   -0.34379E-08   -0.63069E-10  4544   0.221E-04
  11 F= -.44305823E+02 E0= -.44306024E+02  d E =-.906885E-04  mag=     0.0000
       N       E                     dE             d eps       ncg     rms          rms(c)
DAV:   1    -0.443058485578E+02   -0.25118E-04   -0.49594E-04  9584   0.475E-01    0.603E-02
DAV:   2    -0.443058901319E+02   -0.41574E-04   -0.61187E-04  9648   0.239E-01    0.737E-02
DAV:   3    -0.443058280656E+02    0.62066E-04   -0.24142E-04  9632   0.157E-01    0.266E-02
DAV:   4    -0.443058251249E+02    0.29406E-05   -0.28007E-05 10104   0.615E-02    0.110E-02
DAV:   5    -0.443058242946E+02    0.83038E-06   -0.29477E-06 10296   0.177E-02    0.181E-03
DAV:   6    -0.443058243769E+02   -0.82364E-07   -0.19109E-07  9072   0.346E-03    0.818E-04
DAV:   7    -0.443058244454E+02   -0.68467E-07   -0.24493E-08  7680   0.113E-03    0.295E-04
DAV:   8    -0.443058244682E+02   -0.22774E-07   -0.79375E-09  4704   0.922E-04    0.157E-04
DAV:   9    -0.443058244762E+02   -0.80363E-08   -0.20069E-09  4472   0.461E-04
  12 F= -.44305824E+02 E0= -.44306025E+02  d E =-.917211E-04  mag=     0.0000
       N       E                     dE             d eps       ncg     rms          rms(c)
DAV:   1    -0.443065514553E+02   -0.72699E-03   -0.11739E-02  9608   0.237E+00    0.316E-01
DAV:   2    -0.443078372967E+02   -0.12858E-02   -0.17048E-02  9680   0.126E+00    0.407E-01
DAV:   3    -0.443060712453E+02    0.17661E-02   -0.79295E-03  9608   0.933E-01    0.192E-01
DAV:   4    -0.443058805216E+02    0.19072E-03   -0.12928E-03 10024   0.419E-01    0.493E-02
DAV:   5    -0.443058600475E+02    0.20474E-04   -0.55468E-05  9524   0.685E-02    0.179E-02
DAV:   6    -0.443058558708E+02    0.41767E-05   -0.68283E-06 10256   0.227E-02    0.328E-03
DAV:   7    -0.443058555421E+02    0.32877E-06   -0.16609E-06  9480   0.123E-02    0.216E-03
DAV:   8    -0.443058554283E+02    0.11376E-06   -0.19180E-07 10024   0.437E-03    0.578E-04
DAV:   9    -0.443058553857E+02    0.42568E-07   -0.16626E-08  5060   0.145E-03    0.166E-04
DAV:  10    -0.443058553790E+02    0.67412E-08   -0.25225E-09  4616   0.537E-04
  13 F= -.44305855E+02 E0= -.44306059E+02  d E =-.309028E-04  mag=     0.0000
       N       E                     dE             d eps       ncg     rms          rms(c)
DAV:   1    -0.443058888540E+02   -0.33468E-04   -0.55479E-04  9612   0.515E-01    0.687E-02
DAV:   2    -0.443059516592E+02   -0.62805E-04   -0.80445E-04  9680   0.273E-01    0.885E-02
DAV:   3    -0.443058672969E+02    0.84362E-04   -0.37673E-04  9608   0.202E-01    0.419E-02
DAV:   4    -0.443058580462E+02    0.92507E-05   -0.60993E-05 10080   0.917E-02    0.107E-02
DAV:   5    -0.443058568161E+02    0.12301E-05   -0.26280E-06  9508   0.148E-02    0.388E-03
DAV:   6    -0.443058563949E+02    0.42121E-06   -0.31617E-07 10072   0.490E-03    0.711E-04
DAV:   7    -0.443058563378E+02    0.57069E-07   -0.77745E-08  9384   0.266E-03    0.465E-04
DAV:   8    -0.443058563188E+02    0.19019E-07   -0.81971E-09  4592   0.947E-04    0.122E-04
DAV:   9    -0.443058563093E+02    0.95461E-08   -0.13210E-09  4488   0.370E-04
  14 F= -.44305856E+02 E0= -.44306061E+02  d E =-.318331E-04  mag=     0.0000
       N       E                     dE             d eps       ncg     rms          rms(c)
DAV:   1    -0.443053037897E+02    0.55253E-03   -0.13192E-02 10232   0.357E+00    0.150E-01
DAV:   2    -0.443061717502E+02   -0.86796E-03   -0.99403E-03  9832   0.755E-01    0.163E-01
DAV:   3    -0.443059415015E+02    0.23025E-03   -0.17372E-03  9592   0.451E-01    0.105E-01
DAV:   4    -0.443058852351E+02    0.56266E-04   -0.37538E-04 10456   0.232E-01    0.403E-02
DAV:   5    -0.443058746261E+02    0.10609E-04   -0.18996E-05 10312   0.503E-02    0.216E-02
DAV:   6    -0.443058709472E+02    0.36789E-05   -0.12373E-05  9864   0.362E-02    0.365E-03
DAV:   7    -0.443058710973E+02   -0.15011E-06   -0.20108E-06  9392   0.137E-02    0.185E-03
DAV:   8    -0.443058710711E+02    0.26183E-07   -0.13417E-07  9992   0.389E-03    0.453E-04
DAV:   9    -0.443058710997E+02   -0.28591E-07   -0.11355E-08  4916   0.116E-03    0.130E-04
DAV:  10    -0.443058711035E+02   -0.38162E-08   -0.21362E-09  4600   0.472E-04
  15 F= -.44305871E+02 E0= -.44306079E+02  d E =-.147942E-04  mag=     0.0000
       N       E                     dE             d eps       ncg     rms          rms(c)
DAV:   1    -0.443058377888E+02    0.33311E-04   -0.78945E-04 10228   0.874E-01    0.367E-02
DAV:   2    -0.443058885585E+02   -0.50770E-04   -0.59500E-04  9832   0.185E-01    0.399E-02
DAV:   3    -0.443058753355E+02    0.13223E-04   -0.10390E-04  9592   0.111E-01    0.256E-02
DAV:   4    -0.443058720400E+02    0.32955E-05   -0.22594E-05 10448   0.568E-02    0.986E-03
DAV:   5    -0.443058714802E+02    0.55980E-06   -0.11357E-06 10312   0.123E-02    0.529E-03
DAV:   6    -0.443058714967E+02   -0.16458E-07   -0.74063E-07  9864   0.885E-03    0.896E-04
DAV:   7    -0.443058715424E+02   -0.45700E-07   -0.12030E-07  9376   0.335E-03    0.455E-04
DAV:   8    -0.443058715389E+02    0.35434E-08   -0.70372E-09  4668   0.962E-04
  16 F= -.44305872E+02 E0= -.44306080E+02  d E =-.152296E-04  mag=    -0.0000
