       N       E                     dE             d eps       ncg     rms          rms(c)
DAV:   1    -0.443188329973E+02   -0.44319E+02   -0.25386E-01  8640   0.508E+00    0.251E-01
DAV:   2    -0.443214999290E+02   -0.26669E-02   -0.19304E-02  9884   0.130E+00    0.591E-01
DAV:   3    -0.443189364438E+02    0.25635E-02   -0.13466E-02  9764   0.132E+00    0.274E-01
DAV:   4    -0.443185411031E+02    0.39534E-03   -0.15830E-03 10136   0.462E-01    0.748E-02
DAV:   5    -0.443186372486E+02   -0.96146E-04   -0.12764E-03 10684   0.158E-01    0.991E-02
DAV:   6    -0.443186197348E+02    0.17514E-04   -0.87894E-05 10028   0.106E-01    0.313E-02
DAV:   7    -0.443186274168E+02   -0.76820E-05   -0.23990E-04  9664   0.374E-02    0.560E-02
DAV:   8    -0.443186156525E+02    0.11764E-04   -0.16013E-04 10008   0.298E-02    0.343E-02
DAV:   9    -0.443186197192E+02   -0.40666E-05   -0.16244E-04  9792   0.255E-02    0.528E-02
DAV:  10    -0.443186142548E+02    0.54643E-05   -0.13389E-04  9656   0.236E-02    0.333E-02
DAV:  11    -0.443186188378E+02   -0.45829E-05   -0.12511E-04  9640   0.230E-02    0.511E-02
DAV:  12    -0.443186139833E+02    0.48545E-05   -0.14438E-04  9640   0.230E-02    0.339E-02
DAV:  13    -0.443186186424E+02   -0.46591E-05   -0.10512E-04  9616   0.228E-02    0.500E-02
DAV:  14    -0.443186138461E+02    0.47963E-05   -0.15180E-04  9616   0.228E-02    0.343E-02
DAV:  15    -0.443186185196E+02   -0.46735E-05   -0.91782E-05  9576   0.227E-02    0.493E-02
DAV:  16    -0.443186137327E+02    0.47869E-05   -0.15816E-04  9592   0.227E-02    0.347E-02
DAV:  17    -0.443186184303E+02   -0.46975E-05   -0.81359E-05  9560   0.227E-02    0.487E-02
DAV:  18    -0.443186136364E+02    0.47938E-05   -0.16387E-04  9568   0.226E-02    0.350E-02
DAV:  19    -0.443186183636E+02   -0.47272E-05   -0.72764E-05  9568   0.226E-02    0.482E-02
DAV:  20    -0.443186135523E+02    0.48113E-05   -0.16900E-04  9536   0.226E-02    0.353E-02
DAV:  21    -0.443186183110E+02   -0.47586E-05   -0.65470E-05  9544   0.226E-02    0.478E-02
DAV:  22    -0.443186134799E+02    0.48311E-05   -0.17361E-04  9520   0.226E-02    0.356E-02
DAV:  23    -0.443186182682E+02   -0.47884E-05   -0.59157E-05  9552   0.226E-02    0.475E-02
DAV:  24    -0.443186134163E+02    0.48520E-05   -0.17777E-04  9552   0.226E-02    0.358E-02
DAV:  25    -0.443186182327E+02   -0.48164E-05   -0.53599E-05  9564   0.226E-02    0.472E-02
DAV:  26    -0.443186133592E+02    0.48735E-05   -0.18156E-04  9536   0.226E-02    0.360E-02
DAV:  27    -0.443186182023E+02   -0.48430E-05   -0.48647E-05  9540   0.226E-02    0.469E-02
DAV:  28    -0.443186133076E+02    0.48946E-05   -0.18503E-04  9524   0.226E-02    0.362E-02
DAV:  29    -0.443186181779E+02   -0.48703E-05   -0.44182E-05  9540   0.226E-02    0.467E-02
DAV:  30    -0.443186132625E+02    0.49154E-05   -0.18822E-04  9540   0.226E-02    0.364E-02
DAV:  31    -0.443186181557E+02   -0.48932E-05   -0.40128E-05  9540   0.226E-02    0.465E-02
DAV:  32    -0.443186132209E+02    0.49349E-05   -0.19117E-04  9540   0.226E-02    0.366E-02
DAV:  33    -0.443186181359E+02   -0.49150E-05   -0.36420E-05  9540   0.226E-02    0.463E-02
DAV:  34    -0.443186131824E+02    0.49535E-05   -0.19392E-04  9528   0.226E-02    0.367E-02
DAV:  35    -0.443186181187E+02   -0.49363E-05   -0.33007E-05  9540   0.226E-02    0.461E-02
DAV:  36    -0.443186131472E+02    0.49715E-05   -0.19647E-04  9536   0.226E-02    0.369E-02
DAV:  37    -0.443186181040E+02   -0.49569E-05   -0.29850E-05  9544   0.226E-02    0.459E-02
DAV:  38    -0.443186131159E+02    0.49882E-05   -0.19887E-04  9536   0.226E-02    0.370E-02
DAV:  39    -0.443186180923E+02   -0.49764E-05   -0.26917E-05  9544   0.226E-02    0.457E-02
DAV:  40    -0.443186130854E+02    0.50068E-05   -0.20111E-04  9540   0.226E-02    0.371E-02
DAV:  41    -0.443186180797E+02   -0.49943E-05   -0.24180E-05  9544   0.226E-02    0.456E-02
DAV:  42    -0.443186130571E+02    0.50226E-05   -0.20323E-04  9540   0.226E-02    0.372E-02
DAV:  43    -0.443186180693E+02   -0.50121E-05   -0.21619E-05  9536   0.226E-02    0.455E-02
DAV:  44    -0.443186130315E+02    0.50378E-05   -0.20522E-04  9532   0.226E-02    0.373E-02
DAV:  45    -0.443186180589E+02   -0.50274E-05   -0.19214E-05  9536   0.226E-02    0.453E-02
DAV:  46    -0.443186130079E+02    0.50509E-05   -0.20710E-04  9532   0.226E-02    0.375E-02
DAV:  47    -0.443186180488E+02   -0.50408E-05   -0.15271E-05  9536   0.226E-02    0.451E-02
DAV:  48    -0.443186129764E+02    0.50723E-05   -0.20892E-04  9532   0.225E-02    0.376E-02
DAV:  49    -0.443186180396E+02   -0.50632E-05   -0.12875E-05  9536   0.226E-02    0.450E-02
DAV:  50    -0.443186129540E+02    0.50856E-05   -0.21077E-04  9532   0.225E-02    0.377E-02
DAV:  51    -0.443186180326E+02   -0.50786E-05   -0.10697E-05  9536   0.226E-02    0.449E-02
DAV:  52    -0.443186129272E+02    0.51054E-05   -0.21148E-04  9528   0.225E-02    0.377E-02
DAV:  53    -0.443186180948E+02   -0.51676E-05   -0.86016E-06  9536   0.226E-02    0.448E-02
DAV:  54    -0.443186127165E+02    0.53784E-05   -0.21218E-04  9528   0.226E-02    0.379E-02
DAV:  55    -0.443186183618E+02   -0.56453E-05   -0.26307E-06  9552   0.228E-02    0.341E-02
DAV:  56    -0.443186167954E+02    0.15664E-05   -0.16787E-07  8272   0.342E-03    0.341E-02
DAV:  57    -0.443186164826E+02    0.31276E-06   -0.68232E-09  4392   0.897E-04    0.344E-02
DAV:  58    -0.443186166320E+02   -0.14939E-06   -0.40503E-09  4352   0.775E-04    0.341E-02
DAV:  59    -0.443186165413E+02    0.90651E-07   -0.91959E-10  4344   0.388E-04    0.343E-02
DAV:  60    -0.443186167828E+02   -0.24149E-06   -0.12345E-05  7400   0.141E-03
   1 F= -.44318617E+02 E0= -.44318617E+02  d E =0.000000E+00  mag=    -0.0000
