 running on   24 total cores
 distrk:  each k-point on   24 cores,    1 groups
 distr:  one band on    6 cores,    4 groups
 using from now: INCAR     
 vasp.5.4.4.18Apr17-6-g9f103f2a35 (build Jan 03 2018 06:08:52) complex          
  
 POSCAR found :  2 types and       6 ions
 scaLAPACK will be used
 WARNING: for PREC=h ENMAX is automatically increase by 25 %
        this was not the case for versions prior to vasp.4.4
 WARNING: for PREC=h ENMAX is automatically increase by 25 %
        this was not the case for versions prior to vasp.4.4
 LDA part: xc-table for Pade appr. of Perdew
 POSCAR, INCAR and KPOINTS ok, starting setup
 FFT: planning ...
 WAVECAR not read
 entering main loop
       N       E                     dE             d eps       ncg     rms          rms(c)
DAV:   1     0.146687744644E+03    0.14669E+03   -0.15589E+04  7648   0.111E+03
DAV:   2    -0.187998808514E+02   -0.16549E+03   -0.15332E+03  7168   0.282E+02
DAV:   3    -0.243567282700E+02   -0.55568E+01   -0.53721E+01  8352   0.546E+01
DAV:   4    -0.244684447013E+02   -0.11172E+00   -0.11158E+00  7528   0.859E+00
DAV:   5    -0.244717935871E+02   -0.33489E-02   -0.33485E-02  8432   0.148E+00    0.266E+01
DAV:   6    -0.473706332396E+02   -0.22899E+02   -0.16943E+02  7144   0.219E+02    0.344E+01
DAV:   7    -0.242625984115E+02    0.23108E+02   -0.54572E+01  7888   0.973E+01    0.131E+01
DAV:   8    -0.218614526633E+02    0.24011E+01   -0.70267E+00  9064   0.483E+01    0.145E+00
DAV:   9    -0.219041214510E+02   -0.42669E-01   -0.51960E-01  7920   0.749E+00    0.218E+00
DAV:  10    -0.218556345600E+02    0.48487E-01   -0.21481E-01  9120   0.817E+00    0.846E-01
DAV:  11    -0.218536736178E+02    0.19609E-02   -0.14671E-02  7664   0.104E+00    0.647E-01
DAV:  12    -0.218496147406E+02    0.40589E-02   -0.11976E-02  9048   0.179E+00    0.808E-02
DAV:  13    -0.218496240696E+02   -0.93290E-05   -0.72926E-04  7352   0.254E-01    0.315E-02
DAV:  14    -0.218496187031E+02    0.53665E-05   -0.73346E-05 10216   0.131E-01    0.237E-02
DAV:  15    -0.218496129404E+02    0.57626E-05   -0.26830E-05  9392   0.897E-02    0.842E-03
DAV:  16    -0.218496125097E+02    0.43070E-06   -0.12915E-06  7464   0.742E-03    0.808E-03
DAV:  17    -0.218496114905E+02    0.10192E-05   -0.23445E-06  9176   0.256E-02    0.232E-03
DAV:  18    -0.218496114785E+02    0.12001E-07   -0.15351E-07  7608   0.451E-03    0.121E-03
DAV:  19    -0.218496114891E+02   -0.10520E-07   -0.40039E-08  6120   0.320E-03    0.982E-05
DAV:  20    -0.218496114874E+02    0.17026E-08   -0.26876E-09  3816   0.493E-04
   1 F= -.21849611E+02 E0= -.21849555E+02  d E =-.218496E+02  mag=    -0.0000
 curvature:   0.00 expect dE= 0.000E+00 dE for cont linesearch  0.000E+00
 trial: gam= 0.00000 g(F)=  0.647E-01 g(S)=  0.153E+02 ort = 0.000E+00 (trialstep = 0.100E+01)
 search vector abs. value=  0.154E+02
 bond charge predicted
       N       E                     dE             d eps       ncg     rms          rms(c)
DAV:   1    -0.161434374145E+03   -0.13958E+03   -0.26526E+03  6528   0.783E+02    0.804E+01
DAV:   2    -0.315836199159E+02    0.12985E+03   -0.58146E+02  7088   0.197E+02    0.107E+01
DAV:   3    -0.275701036262E+02    0.40135E+01   -0.13266E+01  8160   0.325E+01    0.163E+01
DAV:   4    -0.370851052587E+02   -0.95150E+01   -0.56037E+01  9216   0.796E+01    0.534E+01
DAV:   5    -0.252376463336E+02    0.11847E+02   -0.91456E+00  8608   0.216E+01    0.214E+01
DAV:   6    -0.234718760064E+02    0.17658E+01   -0.88936E+00  8672   0.256E+01    0.363E+00
DAV:   7    -0.234523967507E+02    0.19479E-01   -0.27653E-01  6768   0.397E+00    0.266E+00
DAV:   8    -0.234052853684E+02    0.47111E-01   -0.23784E-02  8832   0.112E+00    0.211E+00
DAV:   9    -0.233711898783E+02    0.34095E-01   -0.32391E-02  9488   0.163E+00    0.984E-01
DAV:  10    -0.233650035901E+02    0.61863E-02   -0.40790E-03  9104   0.414E-01    0.715E-01
DAV:  11    -0.233599683151E+02    0.50353E-02   -0.32386E-03  8880   0.410E-01    0.397E-01
DAV:  12    -0.233577338001E+02    0.22345E-02   -0.62260E-03  9112   0.581E-01    0.129E-01
DAV:  13    -0.233576983136E+02    0.35486E-04   -0.72220E-04  8088   0.215E-01    0.997E-02
DAV:  14    -0.233576560754E+02    0.42238E-04   -0.99482E-05  8272   0.107E-01    0.455E-02
DAV:  15    -0.233576479403E+02    0.81351E-05   -0.78627E-06  8768   0.202E-02    0.305E-02
DAV:  16    -0.233576427064E+02    0.52339E-05   -0.10466E-05  9152   0.317E-02    0.753E-03
DAV:  17    -0.233576424629E+02    0.24346E-06   -0.10362E-06  9768   0.775E-03    0.179E-03
DAV:  18    -0.233576424811E+02   -0.18200E-07   -0.15573E-07  9288   0.305E-03    0.791E-04
DAV:  19    -0.233576424944E+02   -0.13270E-07   -0.12090E-08  3936   0.701E-04    0.881E-04
DAV:  20    -0.233576424794E+02    0.14987E-07   -0.16016E-08  3880   0.110E-03    0.355E-05
DAV:  21    -0.233576424797E+02   -0.29422E-09   -0.19887E-09  3728   0.352E-04
   2 F= -.23357642E+02 E0= -.23357275E+02  d E =-.150803E+01  mag=     0.0000
 trial-energy change:   -1.508031  1 .order   -2.767971  -15.380078    9.844136
 step:   0.5352(harm=  0.6097)  dis= 0.01494  next Energy=   -25.772045 (dE=-0.392E+01)
 bond charge predicted
       N       E                     dE             d eps       ncg     rms          rms(c)
DAV:   1    -0.120303096229E+03   -0.96945E+02   -0.74375E+02  8608   0.319E+02    0.880E+01
DAV:   2    -0.175416339808E+03   -0.55113E+02   -0.24956E+03 11600   0.300E+02    0.920E+01
DAV:   3    -0.410874843005E+02    0.13433E+03   -0.90660E+02  9024   0.196E+02    0.252E+01
DAV:   4    -0.363910411901E+02    0.46964E+01   -0.51118E+01  7456   0.507E+01    0.181E+01
DAV:   5    -0.315198554902E+02    0.48712E+01   -0.25209E+00  8552   0.180E+01    0.149E+01
DAV:   6    -0.264586566729E+02    0.50612E+01   -0.22746E+01  9520   0.725E+01    0.150E+01
DAV:   7    -0.256183917341E+02    0.84026E+00   -0.28664E+00  8128   0.161E+01    0.529E+00
DAV:   8    -0.254419473415E+02    0.17644E+00   -0.22186E-01  9592   0.417E+00    0.226E+00
DAV:   9    -0.253768859057E+02    0.65061E-01   -0.14146E-01  9240   0.388E+00    0.768E-01
DAV:  10    -0.253728287351E+02    0.40572E-02   -0.18093E-02  7456   0.175E+00    0.214E-01
DAV:  11    -0.253714426561E+02    0.13861E-02   -0.36152E-03  8080   0.504E-01    0.641E-02
DAV:  12    -0.253714877287E+02   -0.45073E-04   -0.66535E-04  9232   0.347E-01    0.996E-02
DAV:  13    -0.253714175792E+02    0.70149E-04   -0.16484E-04  7488   0.182E-01    0.268E-02
DAV:  14    -0.253714139543E+02    0.36249E-05   -0.37557E-05  9936   0.721E-02    0.139E-02
DAV:  15    -0.253714146458E+02   -0.69155E-06   -0.19747E-06  9224   0.112E-02    0.163E-02
DAV:  16    -0.253714123009E+02    0.23450E-05   -0.44387E-06  8088   0.293E-02    0.161E-03
DAV:  17    -0.253714122954E+02    0.54420E-08   -0.35238E-07  7776   0.470E-03    0.726E-04
DAV:  18    -0.253714123481E+02   -0.52724E-07   -0.52234E-09  4408   0.660E-04    0.358E-04
DAV:  19    -0.253714123715E+02   -0.23402E-07   -0.23217E-09  3928   0.463E-04    0.467E-05
DAV:  20    -0.253714123736E+02   -0.20932E-08   -0.75398E-10  3616   0.225E-04
   3 F= -.25371412E+02 E0= -.25371306E+02  d E =-.352180E+01  mag=    -0.0000
 curvature:  -0.29 expect dE=-0.375E-02 dE for cont linesearch -0.113E-02
 ZBRENT: interpolating
 opt :   0.5269  next Energy=   -25.372424 (dE=-0.352E+01)
 bond charge predicted
       N       E                     dE             d eps       ncg     rms          rms(c)
DAV:   1    -0.254081181401E+02   -0.36706E-01   -0.21874E-01  7000   0.655E+00    0.241E+00
DAV:   2    -0.257983825711E+02   -0.39026E+00   -0.20086E+00  7888   0.201E+01    0.662E+00
DAV:   3    -0.253696167372E+02    0.42877E+00   -0.10662E+00  7808   0.164E+01    0.402E-01
DAV:   4    -0.253733569061E+02   -0.37402E-02   -0.62976E-02  7760   0.154E+00    0.374E-01
DAV:   5    -0.253726306973E+02    0.72621E-03   -0.40817E-03  8120   0.863E-01    0.940E-02
DAV:   6    -0.253725462520E+02    0.84445E-04   -0.29745E-04  8776   0.224E-01    0.563E-03
DAV:   7    -0.253725492782E+02   -0.30262E-05   -0.22074E-05  9064   0.387E-02    0.180E-02
DAV:   8    -0.253725462818E+02    0.29964E-05   -0.78739E-06  9272   0.350E-02    0.142E-03
DAV:   9    -0.253725462519E+02    0.29944E-07   -0.42373E-07  7304   0.415E-03    0.934E-04
DAV:  10    -0.253725461949E+02    0.57022E-07   -0.86932E-09  5432   0.105E-03    0.294E-04
DAV:  11    -0.253725461886E+02    0.62732E-08   -0.35244E-09  3888   0.385E-04
   4 F= -.25372546E+02 E0= -.25372436E+02  d E =-.352293E+01  mag=     0.0000
 curvature:  -0.26 expect dE=-0.231E-02 dE for cont linesearch -0.563E-04
 ZBRENT: interpolating
 opt :   0.5243  next Energy=   -25.372620 (dE=-0.352E+01)
 bond charge predicted
       N       E                     dE             d eps       ncg     rms          rms(c)
DAV:   1    -0.253759092224E+02   -0.33630E-02   -0.20589E-02  6944   0.202E+00    0.720E-01
DAV:   2    -0.254133715227E+02   -0.37462E-01   -0.18528E-01  7952   0.603E+00    0.223E+00
DAV:   3    -0.253723302129E+02    0.41041E-01   -0.10804E-01  7824   0.490E+00    0.563E-02
DAV:   4    -0.253726762325E+02   -0.34602E-03   -0.41088E-03  7136   0.326E-01    0.990E-02
DAV:   5    -0.253726160273E+02    0.60205E-04   -0.18741E-04  8776   0.182E-01    0.693E-03
DAV:   6    -0.253726156660E+02    0.36131E-06   -0.64406E-06  7600   0.211E-02    0.112E-03
DAV:   7    -0.253726156327E+02    0.33351E-07   -0.25597E-07  8320   0.410E-03    0.156E-03
DAV:   8    -0.253726155780E+02    0.54678E-07   -0.93168E-08  8320   0.368E-03    0.434E-04
DAV:   9    -0.253726155564E+02    0.21631E-07   -0.71059E-09  4112   0.928E-04    0.888E-05
DAV:  10    -0.253726155467E+02    0.97129E-08   -0.18938E-09  3720   0.391E-04
   5 F= -.25372616E+02 E0= -.25372504E+02  d E =-.352300E+01  mag=    -0.0000
 curvature:  -0.34 expect dE=-0.292E-02 dE for cont linesearch -0.767E-08
 trial: gam= 0.00059 g(F)=  0.632E-02 g(S)=  0.214E-02 ort =-0.585E-03 (trialstep = 0.905E+00)
 search vector abs. value=  0.846E-02
 bond charge predicted
       N       E                     dE             d eps       ncg     rms          rms(c)
DAV:   1    -0.253823375432E+02   -0.97220E-02   -0.13608E-01  7680   0.286E+00    0.556E-01
DAV:   2    -0.253863886352E+02   -0.40511E-02   -0.37575E-02  8112   0.273E+00    0.997E-01
DAV:   3    -0.253788950765E+02    0.74936E-02   -0.24904E-02  8024   0.232E+00    0.238E-01
DAV:   4    -0.253781792652E+02    0.71581E-03   -0.18352E-03  7920   0.421E-01    0.457E-02
DAV:   5    -0.253781677970E+02    0.11468E-04   -0.15139E-04  8736   0.132E-01    0.146E-02
DAV:   6    -0.253781662573E+02    0.15397E-05   -0.10899E-05  8048   0.421E-02    0.418E-03
DAV:   7    -0.253781663676E+02   -0.11029E-06   -0.62681E-07  8216   0.820E-03    0.102E-03
DAV:   8    -0.253781663596E+02    0.80267E-08   -0.35602E-08  7536   0.195E-03
   6 F= -.25378166E+02 E0= -.25378071E+02  d E =-.555081E-02  mag=     0.0000
 trial-energy change:   -0.005551  1 .order   -0.005533   -0.007652   -0.003414
 step:   1.6021(harm=  1.6338)  dis= 0.01391  next Energy=   -25.379490 (dE=-0.687E-02)
 bond charge predicted
       N       E                     dE             d eps       ncg     rms          rms(c)
DAV:   1    -0.253820214222E+02   -0.38551E-02   -0.81266E-02  7680   0.222E+00    0.429E-01
DAV:   2    -0.253844527465E+02   -0.24313E-02   -0.22413E-02  8088   0.212E+00    0.776E-01
DAV:   3    -0.253799587300E+02    0.44940E-02   -0.14877E-02  8040   0.180E+00    0.185E-01
DAV:   4    -0.253795296422E+02    0.42909E-03   -0.10978E-03  7952   0.328E-01    0.345E-02
DAV:   5    -0.253795231486E+02    0.64936E-05   -0.88571E-05  8752   0.992E-02    0.107E-02
DAV:   6    -0.253795223093E+02    0.83925E-06   -0.60932E-06  8048   0.312E-02    0.323E-03
DAV:   7    -0.253795223782E+02   -0.68862E-07   -0.36092E-07  8096   0.601E-03    0.800E-04
DAV:   8    -0.253795223693E+02    0.88935E-08   -0.18045E-08  5792   0.135E-03
   7 F= -.25379522E+02 E0= -.25379433E+02  d E =-.690682E-02  mag=    -0.0000
 curvature:  -0.82 expect dE=-0.362E-03 dE for cont linesearch -0.842E-06
 trial: gam= 0.04309 g(F)=  0.951E-04 g(S)=  0.349E-03 ort = 0.934E-04 (trialstep = 0.104E+01)
 search vector abs. value=  0.468E-03
 bond charge predicted
       N       E                     dE             d eps       ncg     rms          rms(c)
DAV:   1    -0.253817693818E+02   -0.22470E-02   -0.27139E-02  8208   0.170E+00    0.485E-01
DAV:   2    -0.253967974526E+02   -0.15028E-01   -0.72746E-02  8112   0.383E+00    0.155E+00
DAV:   3    -0.253798363124E+02    0.16961E-01   -0.46359E-02  7824   0.308E+00    0.104E-01
DAV:   4    -0.253798083981E+02    0.27914E-04   -0.14309E-03  6984   0.252E-01    0.361E-02
DAV:   5    -0.253798022701E+02    0.61280E-05   -0.44886E-05  9200   0.757E-02    0.583E-03
DAV:   6    -0.253798019581E+02    0.31205E-06   -0.18321E-06  7656   0.151E-02    0.305E-03
DAV:   7    -0.253798019531E+02    0.50300E-08   -0.20644E-07  8512   0.469E-03    0.562E-04
DAV:   8    -0.253798019848E+02   -0.31716E-07   -0.10573E-08  4624   0.810E-04    0.113E-04
DAV:   9    -0.253798019944E+02   -0.95979E-08   -0.18411E-09  4112   0.517E-04
   8 F= -.25379802E+02 E0= -.25379742E+02  d E =-.279625E-03  mag=    -0.0000
 trial-energy change:   -0.000280  1 .order   -0.000280   -0.000468   -0.000093
 step:   1.3015(harm=  1.3015)  dis= 0.00187  next Energy=   -25.379814 (dE=-0.292E-03)
 bond charge predicted
       N       E                     dE             d eps       ncg     rms          rms(c)
DAV:   1    -0.253799326020E+02   -0.13062E-03   -0.16433E-03  8224   0.418E-01    0.120E-01
DAV:   2    -0.253808287903E+02   -0.89619E-03   -0.43906E-03  8064   0.944E-01    0.370E-01
DAV:   3    -0.253798149158E+02    0.10139E-02   -0.27579E-03  7856   0.762E-01    0.242E-02
DAV:   4    -0.253798139421E+02    0.97376E-06   -0.88889E-05  7040   0.584E-02    0.108E-02
DAV:   5    -0.253798132452E+02    0.69688E-06   -0.32171E-06  8848   0.219E-02    0.141E-03
DAV:   6    -0.253798132230E+02    0.22178E-07   -0.14881E-07  7696   0.387E-03    0.596E-04
DAV:   7    -0.253798132272E+02   -0.41682E-08   -0.88422E-09  4496   0.106E-03
   9 F= -.25379813E+02 E0= -.25379759E+02  d E =-.290858E-03  mag=    -0.0000
 curvature:  -0.68 expect dE=-0.253E-04 dE for cont linesearch -0.117E-11
 trial: gam= 0.09164 g(F)=  0.874E-05 g(S)=  0.284E-04 ort =-0.283E-07 (trialstep = 0.110E+01)
 search vector abs. value=  0.411E-04
 bond charge predicted
       N       E                     dE             d eps       ncg     rms          rms(c)
DAV:   1    -0.253806809938E+02   -0.86777E-03   -0.62031E-03  7936   0.105E+00    0.359E-01
DAV:   2    -0.253899462585E+02   -0.92653E-02   -0.45548E-02  7952   0.299E+00    0.114E+00
DAV:   3    -0.253797725635E+02    0.10174E-01   -0.27660E-02  7840   0.243E+00    0.344E-02
DAV:   4    -0.253798428494E+02   -0.70286E-04   -0.92006E-04  6960   0.153E-01    0.438E-02
DAV:   5    -0.253798309831E+02    0.11866E-04   -0.33812E-05  8912   0.763E-02    0.373E-03
DAV:   6    -0.253798309616E+02    0.21580E-07   -0.12337E-06  7360   0.776E-03    0.104E-03
DAV:   7    -0.253798309449E+02    0.16645E-07   -0.33052E-08  7816   0.207E-03    0.360E-04
DAV:   8    -0.253798309310E+02    0.13904E-07   -0.46488E-09  4256   0.823E-04    0.203E-04
DAV:   9    -0.253798309190E+02    0.11979E-07   -0.17844E-09  3872   0.649E-04    0.274E-05
DAV:  10    -0.253798309179E+02    0.11105E-08   -0.32017E-10  3632   0.184E-04
  10 F= -.25379831E+02 E0= -.25379786E+02  d E =-.176907E-04  mag=     0.0000
 trial-energy change:   -0.000018  1 .order   -0.000016   -0.000041    0.000009
 step:   0.9331(harm=  0.9066)  dis= 0.00029  next Energy=   -25.379832 (dE=-0.183E-04)
 bond charge predicted
       N       E                     dE             d eps       ncg     rms          rms(c)
DAV:   1    -0.253798502105E+02   -0.19291E-04   -0.13651E-04  7936   0.155E-01    0.529E-02
DAV:   2    -0.253800530447E+02   -0.20283E-03   -0.96890E-04  8032   0.441E-01    0.173E-01
DAV:   3    -0.253798302739E+02    0.22277E-03   -0.59810E-04  7840   0.355E-01    0.595E-03
DAV:   4    -0.253798315273E+02   -0.12535E-05   -0.17971E-05  6928   0.216E-02    0.535E-03
DAV:   5    -0.253798313214E+02    0.20597E-06   -0.50432E-07  8800   0.916E-03    0.603E-04
DAV:   6    -0.253798313127E+02    0.86843E-08   -0.19893E-08  6256   0.105E-03
  11 F= -.25379831E+02 E0= -.25379785E+02  d E =-.180855E-04  mag=    -0.0000
 curvature:  -0.49 expect dE=-0.487E-05 dE for cont linesearch -0.436E-07
 trial: gam= 0.32946 g(F)=  0.480E-05 g(S)=  0.512E-05 ort =-0.191E-05 (trialstep = 0.106E+01)
 search vector abs. value=  0.131E-04
 reached required accuracy - stopping structural energy minimisation
 writing wavefunctions
