  12  12   0   0
  0.1182066E+02  0.6855112E-09  0.6855112E-09  0.6855112E-09  0.5000000E-15
  1.000000000000000E-004
  CAR 
 unknown system                          
     23.08474906    -58.38589928  301      8.97115710      1.00000000
    -58.386  0.0000E+00  0.0000E+00  0.0000E+00  0.0000E+00
    -58.114  0.0000E+00  0.0000E+00  0.0000E+00  0.0000E+00
    -57.843  0.0000E+00  0.0000E+00  0.0000E+00  0.0000E+00
    -57.571  0.0000E+00  0.0000E+00  0.0000E+00  0.0000E+00
    -57.300  0.0000E+00  0.0000E+00  0.0000E+00  0.0000E+00
    -57.028  0.0000E+00  0.0000E+00  0.0000E+00  0.0000E+00
    -56.756  0.0000E+00  0.0000E+00  0.0000E+00  0.0000E+00
    -56.485  0.0000E+00  0.0000E+00  0.0000E+00  0.0000E+00
    -56.213  0.0000E+00  0.0000E+00  0.0000E+00  0.0000E+00
    -55.942  0.0000E+00  0.0000E+00  0.0000E+00  0.0000E+00
    -55.670  0.0000E+00  0.0000E+00  0.0000E+00  0.0000E+00
    -55.399  0.0000E+00  0.0000E+00  0.0000E+00  0.0000E+00
    -55.127  0.0000E+00  0.0000E+00  0.0000E+00  0.0000E+00
    -54.856  0.0000E+00  0.0000E+00  0.0000E+00  0.0000E+00
    -54.584  0.7633E+02  0.7633E+02  0.1399E+02  0.1399E+02
    -54.312  0.0000E+00  0.0000E+00  0.1800E+02  0.1800E+02
    -54.041  0.0000E+00  0.0000E+00  0.2000E+02  0.2000E+02
    -53.769  0.0000E+00  0.0000E+00  0.2100E+02  0.2100E+02
    -53.498  0.0000E+00  0.0000E+00  0.2100E+02  0.2100E+02
    -53.226  0.0000E+00  0.0000E+00  0.2100E+02  0.2100E+02
    -52.955  0.0000E+00  0.0000E+00  0.2100E+02  0.2100E+02
    -52.683  0.0000E+00  0.0000E+00  0.2100E+02  0.2100E+02
    -52.411  0.0000E+00  0.0000E+00  0.2100E+02  0.2100E+02
    -52.140  0.0000E+00  0.0000E+00  0.2100E+02  0.2100E+02
    -51.868  0.0000E+00  0.0000E+00  0.2100E+02  0.2100E+02
    -51.597  0.0000E+00  0.0000E+00  0.2100E+02  0.2100E+02
    -51.325  0.0000E+00  0.0000E+00  0.2100E+02  0.2100E+02
    -51.054  0.0000E+00  0.0000E+00  0.2100E+02  0.2100E+02
    -50.782  0.0000E+00  0.0000E+00  0.2100E+02  0.2100E+02
    -50.510  0.0000E+00  0.0000E+00  0.2100E+02  0.2100E+02
    -50.239  0.0000E+00  0.0000E+00  0.2100E+02  0.2100E+02
    -49.967  0.0000E+00  0.0000E+00  0.2100E+02  0.2100E+02
    -49.696  0.0000E+00  0.0000E+00  0.2100E+02  0.2100E+02
    -49.424  0.0000E+00  0.0000E+00  0.2100E+02  0.2100E+02
    -49.153  0.0000E+00  0.0000E+00  0.2100E+02  0.2100E+02
    -48.881  0.0000E+00  0.0000E+00  0.2100E+02  0.2100E+02
    -48.609  0.0000E+00  0.0000E+00  0.2100E+02  0.2100E+02
    -48.338  0.0000E+00  0.0000E+00  0.2100E+02  0.2100E+02
    -48.066  0.0000E+00  0.0000E+00  0.2100E+02  0.2100E+02
    -47.795  0.0000E+00  0.0000E+00  0.2100E+02  0.2100E+02
    -47.523  0.0000E+00  0.0000E+00  0.2100E+02  0.2100E+02
    -47.252  0.0000E+00  0.0000E+00  0.2100E+02  0.2100E+02
    -46.980  0.0000E+00  0.0000E+00  0.2100E+02  0.2100E+02
    -46.708  0.0000E+00  0.0000E+00  0.2100E+02  0.2100E+02
    -46.437  0.0000E+00  0.0000E+00  0.2100E+02  0.2100E+02
    -46.165  0.0000E+00  0.0000E+00  0.2100E+02  0.2100E+02
    -45.894  0.0000E+00  0.0000E+00  0.2100E+02  0.2100E+02
    -45.622  0.0000E+00  0.0000E+00  0.2100E+02  0.2100E+02
    -45.351  0.0000E+00  0.0000E+00  0.2100E+02  0.2100E+02
    -45.079  0.0000E+00  0.0000E+00  0.2100E+02  0.2100E+02
    -44.807  0.0000E+00  0.0000E+00  0.2100E+02  0.2100E+02
    -44.536  0.0000E+00  0.0000E+00  0.2100E+02  0.2100E+02
    -44.264  0.0000E+00  0.0000E+00  0.2100E+02  0.2100E+02
    -43.993  0.0000E+00  0.0000E+00  0.2100E+02  0.2100E+02
    -43.721  0.0000E+00  0.0000E+00  0.2100E+02  0.2100E+02
    -43.450  0.0000E+00  0.0000E+00  0.2100E+02  0.2100E+02
    -43.178  0.0000E+00  0.0000E+00  0.2100E+02  0.2100E+02
    -42.906  0.0000E+00  0.0000E+00  0.2100E+02  0.2100E+02
    -42.635  0.0000E+00  0.0000E+00  0.2100E+02  0.2100E+02
    -42.363  0.0000E+00  0.0000E+00  0.2100E+02  0.2100E+02
    -42.092  0.0000E+00  0.0000E+00  0.2100E+02  0.2100E+02
    -41.820  0.0000E+00  0.0000E+00  0.2100E+02  0.2100E+02
    -41.549  0.0000E+00  0.0000E+00  0.2100E+02  0.2100E+02
    -41.277  0.0000E+00  0.0000E+00  0.2100E+02  0.2100E+02
    -41.005  0.0000E+00  0.0000E+00  0.2100E+02  0.2100E+02
    -40.734  0.0000E+00  0.0000E+00  0.2100E+02  0.2100E+02
    -40.462  0.0000E+00  0.0000E+00  0.2100E+02  0.2100E+02
    -40.191  0.0000E+00  0.0000E+00  0.2100E+02  0.2100E+02
    -39.919  0.0000E+00  0.0000E+00  0.2100E+02  0.2100E+02
    -39.648  0.0000E+00  0.0000E+00  0.2100E+02  0.2100E+02
    -39.376  0.0000E+00  0.0000E+00  0.2100E+02  0.2100E+02
    -39.105  0.0000E+00  0.0000E+00  0.2100E+02  0.2100E+02
    -38.833  0.0000E+00  0.0000E+00  0.2100E+02  0.2100E+02
    -38.561  0.0000E+00  0.0000E+00  0.2100E+02  0.2100E+02
    -38.290  0.0000E+00  0.0000E+00  0.2100E+02  0.2100E+02
    -38.018  0.0000E+00  0.0000E+00  0.2100E+02  0.2100E+02
    -37.747  0.0000E+00  0.0000E+00  0.2100E+02  0.2100E+02
    -37.475  0.0000E+00  0.0000E+00  0.2100E+02  0.2100E+02
    -37.204  0.0000E+00  0.0000E+00  0.2100E+02  0.2100E+02
    -36.932  0.0000E+00  0.0000E+00  0.2100E+02  0.2100E+02
    -36.660  0.0000E+00  0.0000E+00  0.2100E+02  0.2100E+02
    -36.389  0.0000E+00  0.0000E+00  0.2100E+02  0.2100E+02
    -36.117  0.0000E+00  0.0000E+00  0.2100E+02  0.2100E+02
    -35.846  0.0000E+00  0.0000E+00  0.2100E+02  0.2100E+02
    -35.574  0.0000E+00  0.0000E+00  0.2100E+02  0.2100E+02
    -35.303  0.0000E+00  0.0000E+00  0.2100E+02  0.2100E+02
    -35.031  0.0000E+00  0.0000E+00  0.2100E+02  0.2100E+02
    -34.759  0.0000E+00  0.0000E+00  0.2100E+02  0.2100E+02
    -34.488  0.0000E+00  0.0000E+00  0.2100E+02  0.2100E+02
    -34.216  0.0000E+00  0.0000E+00  0.2100E+02  0.2100E+02
    -33.945  0.0000E+00  0.0000E+00  0.2100E+02  0.2100E+02
    -33.673  0.0000E+00  0.0000E+00  0.2100E+02  0.2100E+02
    -33.402  0.0000E+00  0.0000E+00  0.2100E+02  0.2100E+02
    -33.130  0.0000E+00  0.0000E+00  0.2100E+02  0.2100E+02
    -32.858  0.0000E+00  0.0000E+00  0.2100E+02  0.2100E+02
    -32.587  0.0000E+00  0.0000E+00  0.2100E+02  0.2100E+02
    -32.315  0.0000E+00  0.0000E+00  0.2100E+02  0.2100E+02
    -32.044  0.0000E+00  0.0000E+00  0.2100E+02  0.2100E+02
    -31.772  0.0000E+00  0.0000E+00  0.2100E+02  0.2100E+02
    -31.501  0.0000E+00  0.0000E+00  0.2100E+02  0.2100E+02
    -31.229  0.0000E+00  0.0000E+00  0.2100E+02  0.2100E+02
    -30.957  0.0000E+00  0.0000E+00  0.2100E+02  0.2100E+02
    -30.686  0.0000E+00  0.0000E+00  0.2100E+02  0.2100E+02
    -30.414  0.0000E+00  0.0000E+00  0.2100E+02  0.2100E+02
    -30.143  0.0000E+00  0.0000E+00  0.2100E+02  0.2100E+02
    -29.871  0.0000E+00  0.0000E+00  0.2100E+02  0.2100E+02
    -29.600  0.0000E+00  0.0000E+00  0.2100E+02  0.2100E+02
    -29.328  0.0000E+00  0.0000E+00  0.2100E+02  0.2100E+02
    -29.056  0.0000E+00  0.0000E+00  0.2100E+02  0.2100E+02
    -28.785  0.0000E+00  0.0000E+00  0.2100E+02  0.2100E+02
    -28.513  0.0000E+00  0.0000E+00  0.2100E+02  0.2100E+02
    -28.242  0.0000E+00  0.0000E+00  0.2100E+02  0.2100E+02
    -27.970  0.0000E+00  0.0000E+00  0.2100E+02  0.2100E+02
    -27.699  0.0000E+00  0.0000E+00  0.2100E+02  0.2100E+02
    -27.427  0.0000E+00  0.0000E+00  0.2100E+02  0.2100E+02
    -27.155  0.0000E+00  0.0000E+00  0.2100E+02  0.2100E+02
    -26.884  0.0000E+00  0.0000E+00  0.2100E+02  0.2100E+02
    -26.612  0.0000E+00  0.0000E+00  0.2100E+02  0.2100E+02
    -26.341  0.0000E+00  0.0000E+00  0.2100E+02  0.2100E+02
    -26.069  0.0000E+00  0.0000E+00  0.2100E+02  0.2100E+02
    -25.798  0.0000E+00  0.0000E+00  0.2100E+02  0.2100E+02
    -25.526  0.0000E+00  0.0000E+00  0.2100E+02  0.2100E+02
    -25.255  0.0000E+00  0.0000E+00  0.2100E+02  0.2100E+02
    -24.983  0.0000E+00  0.0000E+00  0.2100E+02  0.2100E+02
    -24.711  0.0000E+00  0.0000E+00  0.2100E+02  0.2100E+02
    -24.440  0.0000E+00  0.0000E+00  0.2100E+02  0.2100E+02
    -24.168  0.0000E+00  0.0000E+00  0.2100E+02  0.2100E+02
    -23.897  0.0000E+00  0.0000E+00  0.2100E+02  0.2100E+02
    -23.625  0.0000E+00  0.0000E+00  0.2100E+02  0.2100E+02
    -23.354  0.0000E+00  0.0000E+00  0.2100E+02  0.2100E+02
    -23.082  0.0000E+00  0.0000E+00  0.2100E+02  0.2100E+02
    -22.810  0.0000E+00  0.0000E+00  0.2100E+02  0.2100E+02
    -22.539  0.0000E+00  0.0000E+00  0.2100E+02  0.2100E+02
    -22.267  0.0000E+00  0.0000E+00  0.2100E+02  0.2100E+02
    -21.996  0.0000E+00  0.0000E+00  0.2100E+02  0.2100E+02
    -21.724  0.0000E+00  0.0000E+00  0.2100E+02  0.2100E+02
    -21.453  0.0000E+00  0.0000E+00  0.2100E+02  0.2100E+02
    -21.181  0.0000E+00  0.0000E+00  0.2100E+02  0.2100E+02
    -20.909  0.0000E+00  0.0000E+00  0.2100E+02  0.2100E+02
    -20.638  0.0000E+00  0.0000E+00  0.2100E+02  0.2100E+02
    -20.366  0.0000E+00  0.0000E+00  0.2100E+02  0.2100E+02
    -20.095  0.0000E+00  0.0000E+00  0.2100E+02  0.2100E+02
    -19.823  0.0000E+00  0.0000E+00  0.2100E+02  0.2100E+02
    -19.552  0.0000E+00  0.0000E+00  0.2100E+02  0.2100E+02
    -19.280  0.0000E+00  0.0000E+00  0.2100E+02  0.2100E+02
    -19.008  0.0000E+00  0.0000E+00  0.2100E+02  0.2100E+02
    -18.737  0.0000E+00  0.0000E+00  0.2100E+02  0.2100E+02
    -18.465  0.0000E+00  0.0000E+00  0.2100E+02  0.2100E+02
    -18.194  0.0000E+00  0.0000E+00  0.2100E+02  0.2100E+02
    -17.922  0.0000E+00  0.0000E+00  0.2100E+02  0.2100E+02
    -17.651  0.0000E+00  0.0000E+00  0.2100E+02  0.2100E+02
    -17.379  0.0000E+00  0.0000E+00  0.2100E+02  0.2100E+02
    -17.107  0.0000E+00  0.0000E+00  0.2100E+02  0.2100E+02
    -16.836  0.0000E+00  0.0000E+00  0.2100E+02  0.2100E+02
    -16.564  0.0000E+00  0.0000E+00  0.2100E+02  0.2100E+02
    -16.293  0.0000E+00  0.0000E+00  0.2100E+02  0.2100E+02
    -16.021  0.0000E+00  0.0000E+00  0.2100E+02  0.2100E+02
    -15.750  0.0000E+00  0.0000E+00  0.2100E+02  0.2100E+02
    -15.478  0.0000E+00  0.0000E+00  0.2100E+02  0.2100E+02
    -15.206  0.0000E+00  0.0000E+00  0.2100E+02  0.2100E+02
    -14.935  0.0000E+00  0.0000E+00  0.2100E+02  0.2100E+02
    -14.663  0.0000E+00  0.0000E+00  0.2100E+02  0.2100E+02
    -14.392  0.0000E+00  0.0000E+00  0.2100E+02  0.2100E+02
    -14.120  0.0000E+00  0.0000E+00  0.2100E+02  0.2100E+02
    -13.849  0.0000E+00  0.0000E+00  0.2100E+02  0.2100E+02
    -13.577  0.0000E+00  0.0000E+00  0.2100E+02  0.2100E+02
    -13.305  0.0000E+00  0.0000E+00  0.2100E+02  0.2100E+02
    -13.034  0.0000E+00  0.0000E+00  0.2100E+02  0.2100E+02
    -12.762  0.0000E+00  0.0000E+00  0.2100E+02  0.2100E+02
    -12.491  0.0000E+00  0.0000E+00  0.2100E+02  0.2100E+02
    -12.219  0.0000E+00  0.0000E+00  0.2100E+02  0.2100E+02
    -11.948  0.0000E+00  0.0000E+00  0.2100E+02  0.2100E+02
    -11.676  0.0000E+00  0.0000E+00  0.2100E+02  0.2100E+02
    -11.404  0.0000E+00  0.0000E+00  0.2100E+02  0.2100E+02
    -11.133  0.0000E+00  0.0000E+00  0.2100E+02  0.2100E+02
    -10.861  0.0000E+00  0.0000E+00  0.2100E+02  0.2100E+02
    -10.590  0.0000E+00  0.0000E+00  0.2100E+02  0.2100E+02
    -10.318  0.0000E+00  0.0000E+00  0.2100E+02  0.2100E+02
    -10.047  0.0000E+00  0.0000E+00  0.2100E+02  0.2100E+02
     -9.775  0.0000E+00  0.0000E+00  0.2100E+02  0.2100E+02
     -9.504  0.0000E+00  0.0000E+00  0.2100E+02  0.2100E+02
     -9.232  0.0000E+00  0.0000E+00  0.2100E+02  0.2100E+02
     -8.960  0.0000E+00  0.0000E+00  0.2100E+02  0.2100E+02
     -8.689  0.0000E+00  0.0000E+00  0.2100E+02  0.2100E+02
     -8.417  0.0000E+00  0.0000E+00  0.2100E+02  0.2100E+02
     -8.146  0.0000E+00  0.0000E+00  0.2100E+02  0.2100E+02
     -7.874  0.0000E+00  0.0000E+00  0.2100E+02  0.2100E+02
     -7.603  0.0000E+00  0.0000E+00  0.2100E+02  0.2100E+02
     -7.331  0.0000E+00  0.0000E+00  0.2100E+02  0.2100E+02
     -7.059  0.0000E+00  0.0000E+00  0.2100E+02  0.2100E+02
     -6.788  0.0000E+00  0.0000E+00  0.2100E+02  0.2100E+02
     -6.516  0.0000E+00  0.0000E+00  0.2100E+02  0.2100E+02
     -6.245  0.0000E+00  0.0000E+00  0.2100E+02  0.2100E+02
     -5.973  0.0000E+00  0.0000E+00  0.2100E+02  0.2100E+02
     -5.702  0.0000E+00  0.0000E+00  0.2100E+02  0.2100E+02
     -5.430  0.0000E+00  0.0000E+00  0.2100E+02  0.2100E+02
     -5.158  0.0000E+00  0.0000E+00  0.2100E+02  0.2100E+02
     -4.887  0.0000E+00  0.0000E+00  0.2100E+02  0.2100E+02
     -4.615  0.0000E+00  0.0000E+00  0.2100E+02  0.2100E+02
     -4.344  0.0000E+00  0.0000E+00  0.2100E+02  0.2100E+02
     -4.072  0.0000E+00  0.0000E+00  0.2100E+02  0.2100E+02
     -3.801  0.0000E+00  0.0000E+00  0.2100E+02  0.2100E+02
     -3.529  0.0000E+00  0.0000E+00  0.2100E+02  0.2100E+02
     -3.257  0.0000E+00  0.0000E+00  0.2100E+02  0.2100E+02
     -2.986  0.0000E+00  0.0000E+00  0.2100E+02  0.2100E+02
     -2.714  0.0000E+00  0.0000E+00  0.2100E+02  0.2100E+02
     -2.443  0.0000E+00  0.0000E+00  0.2100E+02  0.2100E+02
     -2.171  0.0000E+00  0.0000E+00  0.2100E+02  0.2100E+02
     -1.900  0.0000E+00  0.0000E+00  0.2100E+02  0.2100E+02
     -1.628  0.1468E+00  0.1468E+00  0.2101E+02  0.2101E+02
     -1.356  0.3305E+00  0.3305E+00  0.2108E+02  0.2108E+02
     -1.085  0.4804E+00  0.4804E+00  0.2119E+02  0.2119E+02
     -0.813  0.5852E+00  0.5852E+00  0.2134E+02  0.2134E+02
     -0.542  0.4543E+00  0.4543E+00  0.2150E+02  0.2150E+02
     -0.270  0.5019E+00  0.5019E+00  0.2161E+02  0.2161E+02
      0.001  0.8703E+00  0.8703E+00  0.2180E+02  0.2180E+02
      0.273  0.9006E+00  0.9006E+00  0.2205E+02  0.2205E+02
      0.545  0.8568E+00  0.8568E+00  0.2228E+02  0.2228E+02
      0.816  0.6569E+00  0.6569E+00  0.2249E+02  0.2249E+02
      1.088  0.7907E+00  0.7907E+00  0.2268E+02  0.2268E+02
      1.359  0.1226E+01  0.1226E+01  0.2296E+02  0.2296E+02
      1.631  0.1090E+01  0.1090E+01  0.2327E+02  0.2327E+02
      1.902  0.1242E+01  0.1242E+01  0.2359E+02  0.2359E+02
      2.174  0.1153E+01  0.1153E+01  0.2391E+02  0.2391E+02
      2.446  0.1417E+01  0.1417E+01  0.2424E+02  0.2424E+02
      2.717  0.1506E+01  0.1506E+01  0.2471E+02  0.2471E+02
      2.989  0.9976E+00  0.9976E+00  0.2501E+02  0.2501E+02
      3.260  0.1399E+01  0.1399E+01  0.2535E+02  0.2535E+02
      3.532  0.2205E+01  0.2205E+01  0.2589E+02  0.2589E+02
      3.803  0.1744E+01  0.1744E+01  0.2637E+02  0.2637E+02
      4.075  0.2100E+01  0.2100E+01  0.2699E+02  0.2699E+02
      4.346  0.1982E+01  0.1982E+01  0.2749E+02  0.2749E+02
      4.618  0.3713E+01  0.3713E+01  0.2822E+02  0.2822E+02
      4.890  0.3226E+01  0.3226E+01  0.2898E+02  0.2898E+02
      5.161  0.4820E+01  0.4820E+01  0.3008E+02  0.3008E+02
      5.433  0.5459E+01  0.5459E+01  0.3154E+02  0.3154E+02
      5.704  0.1030E+02  0.1030E+02  0.3328E+02  0.3328E+02
      5.976  0.1084E+02  0.1084E+02  0.3553E+02  0.3553E+02
      6.247  0.1284E+02  0.1284E+02  0.3862E+02  0.3862E+02
      6.519  0.1078E+02  0.1078E+02  0.4118E+02  0.4118E+02
      6.791  0.1120E+02  0.1120E+02  0.4454E+02  0.4454E+02
      7.062  0.1067E+02  0.1067E+02  0.4702E+02  0.4702E+02
      7.334  0.2017E+02  0.2017E+02  0.5171E+02  0.5171E+02
      7.605  0.7926E+01  0.7926E+01  0.5534E+02  0.5534E+02
      7.877  0.1182E+02  0.1182E+02  0.5775E+02  0.5775E+02
      8.148  0.1002E+02  0.1002E+02  0.6001E+02  0.6001E+02
      8.420  0.5040E+01  0.5040E+01  0.6168E+02  0.6168E+02
      8.692  0.2365E+01  0.2365E+01  0.6246E+02  0.6246E+02
      8.963  0.3599E+01  0.3599E+01  0.6347E+02  0.6347E+02
      9.235  0.2653E+01  0.2653E+01  0.6429E+02  0.6429E+02
      9.506  0.2229E+01  0.2229E+01  0.6498E+02  0.6498E+02
      9.778  0.1839E+01  0.1839E+01  0.6557E+02  0.6557E+02
     10.049  0.1786E+01  0.1786E+01  0.6602E+02  0.6602E+02
     10.321  0.1215E+01  0.1215E+01  0.6644E+02  0.6644E+02
     10.593  0.1359E+01  0.1359E+01  0.6678E+02  0.6678E+02
     10.864  0.1490E+01  0.1490E+01  0.6720E+02  0.6720E+02
     11.136  0.8768E+00  0.8768E+00  0.6751E+02  0.6751E+02
     11.407  0.1184E+01  0.1184E+01  0.6776E+02  0.6776E+02
     11.679  0.2443E+01  0.2443E+01  0.6820E+02  0.6820E+02
     11.950  0.3278E+01  0.3278E+01  0.6902E+02  0.6902E+02
     12.222  0.2255E+01  0.2255E+01  0.6967E+02  0.6967E+02
     12.494  0.2084E+01  0.2084E+01  0.7027E+02  0.7027E+02
     12.765  0.1977E+01  0.1977E+01  0.7083E+02  0.7083E+02
     13.037  0.2799E+01  0.2799E+01  0.7142E+02  0.7142E+02
     13.308  0.2135E+01  0.2135E+01  0.7212E+02  0.7212E+02
     13.580  0.2129E+01  0.2129E+01  0.7267E+02  0.7267E+02
     13.851  0.2052E+01  0.2052E+01  0.7324E+02  0.7324E+02
     14.123  0.1768E+01  0.1768E+01  0.7374E+02  0.7374E+02
     14.395  0.1990E+01  0.1990E+01  0.7424E+02  0.7424E+02
     14.666  0.2128E+01  0.2128E+01  0.7479E+02  0.7479E+02
     14.938  0.2798E+01  0.2798E+01  0.7557E+02  0.7557E+02
     15.209  0.1551E+01  0.1551E+01  0.7611E+02  0.7611E+02
     15.481  0.1946E+01  0.1946E+01  0.7663E+02  0.7663E+02
     15.752  0.2428E+01  0.2428E+01  0.7717E+02  0.7717E+02
     16.024  0.3102E+01  0.3102E+01  0.7786E+02  0.7786E+02
     16.296  0.2687E+01  0.2687E+01  0.7855E+02  0.7855E+02
     16.567  0.2282E+01  0.2282E+01  0.7924E+02  0.7924E+02
     16.839  0.2346E+01  0.2346E+01  0.7988E+02  0.7988E+02
     17.110  0.2570E+01  0.2570E+01  0.8055E+02  0.8055E+02
     17.382  0.2574E+01  0.2574E+01  0.8125E+02  0.8125E+02
     17.653  0.2318E+01  0.2318E+01  0.8192E+02  0.8192E+02
     17.925  0.1844E+01  0.1844E+01  0.8247E+02  0.8247E+02
     18.197  0.1337E+01  0.1337E+01  0.8292E+02  0.8292E+02
     18.468  0.1302E+01  0.1302E+01  0.8329E+02  0.8329E+02
     18.740  0.1051E+01  0.1051E+01  0.8362E+02  0.8362E+02
     19.011  0.5137E+00  0.5137E+00  0.8384E+02  0.8384E+02
     19.283  0.4958E+00  0.4958E+00  0.8396E+02  0.8396E+02
     19.554  0.0000E+00  0.0000E+00  0.8400E+02  0.8400E+02
     19.826  0.0000E+00  0.0000E+00  0.8400E+02  0.8400E+02
     20.097  0.0000E+00  0.0000E+00  0.8400E+02  0.8400E+02
     20.369  0.0000E+00  0.0000E+00  0.8400E+02  0.8400E+02
     20.641  0.0000E+00  0.0000E+00  0.8400E+02  0.8400E+02
     20.912  0.0000E+00  0.0000E+00  0.8400E+02  0.8400E+02
     21.184  0.0000E+00  0.0000E+00  0.8400E+02  0.8400E+02
     21.455  0.0000E+00  0.0000E+00  0.8400E+02  0.8400E+02
     21.727  0.0000E+00  0.0000E+00  0.8400E+02  0.8400E+02
     21.998  0.0000E+00  0.0000E+00  0.8400E+02  0.8400E+02
     22.270  0.0000E+00  0.0000E+00  0.8400E+02  0.8400E+02
     22.542  0.0000E+00  0.0000E+00  0.8400E+02  0.8400E+02
     22.813  0.0000E+00  0.0000E+00  0.8400E+02  0.8400E+02
     23.085  0.0000E+00  0.0000E+00  0.8400E+02  0.8400E+02
