       N       E                     dE             d eps       ncg     rms          rms(c)
DAV:   1     0.161647300326E+04    0.16165E+04   -0.73172E+04 10888   0.177E+03
DAV:   2     0.599010994150E+02   -0.15566E+04   -0.14875E+04  9096   0.576E+02
DAV:   3    -0.681367341164E+02   -0.12804E+03   -0.11574E+03 10228   0.182E+02
DAV:   4    -0.736328138492E+02   -0.54961E+01   -0.54315E+01 10272   0.360E+01
DAV:   5    -0.737613392768E+02   -0.12853E+00   -0.12845E+00 10420   0.542E+00    0.354E+01
DAV:   6    -0.896752279054E+02   -0.15914E+02   -0.18412E+02 10332   0.122E+02    0.436E+01
DAV:   7    -0.641656164267E+02    0.25510E+02   -0.67919E+01 10336   0.823E+01    0.508E+00
DAV:   8    -0.647577845212E+02   -0.59217E+00   -0.56926E+00 11040   0.226E+01    0.672E+00
DAV:   9    -0.645128045367E+02    0.24498E+00   -0.90837E-01 10492   0.171E+01    0.323E+00
DAV:  10    -0.644524806559E+02    0.60324E-01   -0.41224E-01 11140   0.706E+00    0.190E+00
DAV:  11    -0.644303377037E+02    0.22143E-01   -0.77975E-02 10520   0.448E+00    0.739E-01
DAV:  12    -0.644221581532E+02    0.81796E-02   -0.17159E-02 10596   0.129E+00    0.232E-01
DAV:  13    -0.644220015204E+02    0.15663E-03   -0.39050E-03 10928   0.484E-01    0.151E-01
DAV:  14    -0.644218618321E+02    0.13969E-03   -0.50420E-04 11364   0.224E-01    0.461E-02
DAV:  15    -0.644218615020E+02    0.33006E-06   -0.86292E-05 11140   0.629E-02    0.112E-02
DAV:  16    -0.644218606001E+02    0.90189E-06   -0.67411E-06  9904   0.178E-02    0.405E-03
DAV:  17    -0.644218601747E+02    0.42541E-06   -0.58131E-07  9940   0.567E-03    0.184E-03
DAV:  18    -0.644218597839E+02    0.39077E-06   -0.82815E-08  9948   0.223E-03    0.591E-04
DAV:  19    -0.644218597048E+02    0.79133E-07   -0.96729E-09  5260   0.739E-04    0.228E-04
DAV:  20    -0.644218596890E+02    0.15767E-07   -0.18656E-09  5028   0.352E-04    0.850E-05
DAV:  21    -0.644218596864E+02    0.26666E-08   -0.68348E-10  4960   0.189E-04
   1 F= -.64421860E+02 E0= -.64421358E+02  d E =-.644219E+02  mag=     0.0000
       N       E                     dE             d eps       ncg     rms          rms(c)
DAV:   1    -0.221553043126E+03   -0.15713E+03   -0.17658E+03  9320   0.405E+02    0.102E+02
DAV:   2    -0.153238567302E+03    0.68314E+02   -0.12202E+03 10712   0.240E+02    0.810E+01
DAV:   3    -0.817736102868E+02    0.71465E+02   -0.41567E+02 10648   0.162E+02    0.396E+01
DAV:   4    -0.690536406757E+02    0.12720E+02   -0.63093E+01 10784   0.708E+01    0.223E+01
DAV:   5    -0.670666677359E+02    0.19870E+01   -0.19151E+01 10952   0.444E+01    0.110E+01
DAV:   6    -0.656130952241E+02    0.14536E+01   -0.23399E+00 10808   0.186E+01    0.632E+00
DAV:   7    -0.653246971287E+02    0.28840E+00   -0.10970E+00 10556   0.154E+01    0.449E+00
DAV:   8    -0.651429767203E+02    0.18172E+00   -0.42642E-01 12288   0.896E+00    0.230E+00
DAV:   9    -0.651358397825E+02    0.71369E-02   -0.30641E-01 10112   0.551E+00    0.163E+00
DAV:  10    -0.651199651667E+02    0.15875E-01   -0.39110E-02  9944   0.284E+00    0.282E-01
DAV:  11    -0.651203534906E+02   -0.38832E-03   -0.63941E-03  9924   0.563E-01    0.287E-01
DAV:  12    -0.651199735954E+02    0.37990E-03   -0.68951E-04 10592   0.271E-01    0.102E-01
DAV:  13    -0.651199269914E+02    0.46604E-04   -0.23044E-04 12456   0.134E-01    0.214E-02
DAV:  14    -0.651199286652E+02   -0.16739E-05   -0.38239E-05 10112   0.444E-02    0.102E-02
DAV:  15    -0.651199282685E+02    0.39667E-06   -0.13738E-06 11060   0.998E-03    0.500E-03
DAV:  16    -0.651199284987E+02   -0.23015E-06   -0.64322E-07 11972   0.807E-03    0.123E-03
DAV:  17    -0.651199284995E+02   -0.80763E-09   -0.20992E-07  9012   0.368E-03    0.100E-03
DAV:  18    -0.651199284750E+02    0.24505E-07   -0.98807E-09  4956   0.909E-04    0.530E-04
DAV:  19    -0.651199284683E+02    0.66793E-08   -0.37019E-09  4888   0.475E-04
   2 F= -.65119928E+02 E0= -.65118296E+02  d E =-.698069E+00  mag=    -0.0000
       N       E                     dE             d eps       ncg     rms          rms(c)
DAV:   1    -0.954047041046E+02   -0.30285E+02   -0.25044E+02  9840   0.136E+02    0.568E+01
DAV:   2    -0.129743280092E+03   -0.34339E+02   -0.46744E+02  9808   0.194E+02    0.599E+01
DAV:   3    -0.663629587239E+02    0.63380E+02   -0.16470E+02 10160   0.111E+02    0.812E+00
DAV:   4    -0.659903382851E+02    0.37262E+00   -0.59351E+00 10656   0.158E+01    0.538E+00
DAV:   5    -0.658326389377E+02    0.15770E+00   -0.18445E+00 10544   0.152E+01    0.665E+00
DAV:   6    -0.654675429089E+02    0.36510E+00   -0.71424E-01 10984   0.130E+01    0.145E+00
DAV:   7    -0.654704470584E+02   -0.29041E-02   -0.18334E-01 10616   0.535E+00    0.128E+00
DAV:   8    -0.654579289889E+02    0.12518E-01   -0.44845E-02 10368   0.312E+00    0.449E-01
DAV:   9    -0.654567239681E+02    0.12050E-02   -0.73758E-03 10240   0.589E-01    0.221E-01
DAV:  10    -0.654565356363E+02    0.18833E-03   -0.31276E-03 11240   0.434E-01    0.174E-01
DAV:  11    -0.654562849071E+02    0.25073E-03   -0.10632E-03 10264   0.334E-01    0.430E-02
DAV:  12    -0.654562760897E+02    0.88174E-05   -0.88069E-05  9784   0.108E-01    0.100E-02
DAV:  13    -0.654562749744E+02    0.11154E-05   -0.51880E-06 10648   0.220E-02    0.725E-03
DAV:  14    -0.654562741191E+02    0.85526E-06   -0.19039E-06 10404   0.116E-02    0.105E-03
DAV:  15    -0.654562741475E+02   -0.28405E-07   -0.70851E-08  8600   0.167E-03    0.101E-03
DAV:  16    -0.654562741687E+02   -0.21191E-07   -0.98242E-09  4952   0.103E-03    0.389E-04
DAV:  17    -0.654562741773E+02   -0.85820E-08   -0.62861E-09  4912   0.524E-04
   3 F= -.65456274E+02 E0= -.65455070E+02  d E =-.103441E+01  mag=    -0.0000
       N       E                     dE             d eps       ncg     rms          rms(c)
DAV:   1    -0.672981476699E+02   -0.18419E+01   -0.51336E+01 10640   0.927E+01    0.150E+01
DAV:   2    -0.690904558435E+02   -0.17923E+01   -0.28154E+01 10128   0.463E+01    0.164E+01
DAV:   3    -0.659917889510E+02    0.30987E+01   -0.10089E+01 10064   0.291E+01    0.474E+00
DAV:   4    -0.662546709713E+02   -0.26288E+00   -0.14594E+00 11376   0.186E+01    0.110E+01
DAV:   5    -0.657540236865E+02    0.50065E+00   -0.16181E+00 10688   0.120E+01    0.248E+00
DAV:   6    -0.657224325375E+02    0.31591E-01   -0.18730E-01 12040   0.663E+00    0.110E+00
DAV:   7    -0.657157645704E+02    0.66680E-02   -0.40240E-02 10464   0.266E+00    0.284E-01
DAV:   8    -0.657156028527E+02    0.16172E-03   -0.44717E-03 10448   0.593E-01    0.862E-02
DAV:   9    -0.657156924989E+02   -0.89646E-04   -0.59223E-04  9888   0.220E-01    0.401E-02
DAV:  10    -0.657156893157E+02    0.31832E-05   -0.50032E-05 10208   0.907E-02    0.107E-02
DAV:  11    -0.657156875117E+02    0.18040E-05   -0.45450E-06 12240   0.203E-02    0.293E-03
DAV:  12    -0.657156871450E+02    0.36671E-06   -0.77699E-07 10048   0.714E-03    0.116E-03
DAV:  13    -0.657156870153E+02    0.12969E-06   -0.10771E-07 10160   0.345E-03    0.497E-04
DAV:  14    -0.657156869950E+02    0.20238E-07   -0.93124E-09  5160   0.120E-03    0.771E-05
DAV:  15    -0.657156869948E+02    0.27285E-09   -0.19071E-09  4928   0.255E-04
   4 F= -.65715687E+02 E0= -.65714825E+02  d E =-.259413E+00  mag=    -0.0000
       N       E                     dE             d eps       ncg     rms          rms(c)
DAV:   1    -0.714301440975E+02   -0.57145E+01   -0.17180E+02 10536   0.170E+02    0.274E+01
DAV:   2    -0.761009655526E+02   -0.46708E+01   -0.86526E+01 10032   0.838E+01    0.273E+01
DAV:   3    -0.667202021003E+02    0.93808E+01   -0.30846E+01 10160   0.534E+01    0.832E+00
DAV:   4    -0.671249142256E+02   -0.40471E+00   -0.43504E+00 11256   0.314E+01    0.135E+01
DAV:   5    -0.659234868697E+02    0.12014E+01   -0.19913E+00 10744   0.216E+01    0.222E+00
DAV:   6    -0.659849967487E+02   -0.61510E-01   -0.55233E-01 12112   0.998E+00    0.359E+00
DAV:   7    -0.659110925525E+02    0.73904E-01   -0.23693E-01 10032   0.571E+00    0.557E-01
DAV:   8    -0.659113909204E+02   -0.29837E-03   -0.25249E-02 10528   0.149E+00    0.238E-01
DAV:   9    -0.659114849676E+02   -0.94047E-04   -0.34666E-03 10032   0.676E-01    0.616E-02
DAV:  10    -0.659114898602E+02   -0.48925E-05   -0.25286E-04 10248   0.130E-01    0.295E-02
DAV:  11    -0.659114859763E+02    0.38839E-05   -0.33503E-05 10672   0.555E-02    0.996E-03
DAV:  12    -0.659114849636E+02    0.10127E-05   -0.52699E-06 10472   0.210E-02    0.304E-03
DAV:  13    -0.659114845845E+02    0.37906E-06   -0.44388E-07 11232   0.693E-03    0.105E-03
DAV:  14    -0.659114845235E+02    0.61013E-07   -0.69749E-08 10080   0.182E-03    0.251E-04
DAV:  15    -0.659114845031E+02    0.20427E-07   -0.59040E-09  5080   0.612E-04    0.692E-05
DAV:  16    -0.659114845030E+02    0.80036E-10   -0.12362E-09  4960   0.276E-04
   5 F= -.65911485E+02 E0= -.65910626E+02  d E =-.455210E+00  mag=     0.0000
       N       E                     dE             d eps       ncg     rms          rms(c)
DAV:   1    -0.670377187014E+02   -0.11262E+01   -0.11679E+02  9888   0.210E+02    0.213E+01
DAV:   2    -0.739552920141E+02   -0.69176E+01   -0.99682E+01 10432   0.781E+01    0.269E+01
DAV:   3    -0.681471347148E+02    0.58082E+01   -0.25509E+01 10216   0.481E+01    0.146E+01
DAV:   4    -0.663263224353E+02    0.18208E+01   -0.54646E+00 10284   0.301E+01    0.575E+00
DAV:   5    -0.662012129253E+02    0.12511E+00   -0.17751E+00 11496   0.163E+01    0.576E+00
DAV:   6    -0.660191355641E+02    0.18208E+00   -0.67982E-01 10464   0.132E+01    0.179E+00
DAV:   7    -0.659946511445E+02    0.24484E-01   -0.13306E-01 11192   0.399E+00    0.598E-01
DAV:   8    -0.659928618117E+02    0.17893E-02   -0.16717E-02 10624   0.125E+00    0.186E-01
DAV:   9    -0.659934665458E+02   -0.60473E-03   -0.53283E-03 10216   0.795E-01    0.296E-01
DAV:  10    -0.659929649212E+02    0.50162E-03   -0.18737E-03 10240   0.545E-01    0.624E-02
DAV:  11    -0.659929561305E+02    0.87906E-05   -0.20554E-04 10904   0.108E-01    0.154E-02
DAV:  12    -0.659929573312E+02   -0.12006E-05   -0.16653E-05  9880   0.310E-02    0.171E-02
DAV:  13    -0.659929567428E+02    0.58832E-06   -0.95996E-06 10816   0.354E-02    0.903E-03
DAV:  14    -0.659929561817E+02    0.56116E-06   -0.24885E-06 11392   0.171E-02    0.274E-03
DAV:  15    -0.659929562150E+02   -0.33368E-07   -0.16640E-07  9720   0.315E-03    0.127E-03
DAV:  16    -0.659929562141E+02    0.93496E-09   -0.41154E-08  7832   0.196E-03
   6 F= -.65992956E+02 E0= -.65993495E+02  d E =-.814717E-01  mag=     0.0000
       N       E                     dE             d eps       ncg     rms          rms(c)
DAV:   1    -0.660138877749E+02   -0.20932E-01   -0.27929E+00 10216   0.336E+01    0.346E+00
DAV:   2    -0.662037443362E+02   -0.18986E+00   -0.23623E+00 10304   0.125E+01    0.410E+00
DAV:   3    -0.660159348915E+02    0.18781E+00   -0.63988E-01 10160   0.779E+00    0.167E+00
DAV:   4    -0.660095719896E+02    0.63629E-02   -0.10779E-01 10640   0.342E+00    0.118E+00
DAV:   5    -0.659965918680E+02    0.12980E-01   -0.24371E-02 11920   0.187E+00    0.237E-01
DAV:   6    -0.659982927525E+02   -0.17009E-02   -0.90523E-03 10856   0.164E+00    0.522E-01
DAV:   7    -0.659962726532E+02    0.20201E-02   -0.38019E-03 10376   0.121E+00    0.494E-02
DAV:   8    -0.659962884185E+02   -0.15765E-04   -0.56130E-04  9920   0.146E-01    0.385E-02
DAV:   9    -0.659962813736E+02    0.70449E-05   -0.46749E-05 11664   0.840E-02    0.142E-02
DAV:  10    -0.659962803145E+02    0.10591E-05   -0.72171E-06 10304   0.304E-02    0.264E-03
DAV:  11    -0.659962801014E+02    0.21308E-06   -0.67526E-07 10712   0.694E-03    0.873E-04
DAV:  12    -0.659962799902E+02    0.11123E-06   -0.48710E-08  9000   0.177E-03    0.402E-04
DAV:  13    -0.659962799644E+02    0.25808E-07   -0.86816E-09  5040   0.103E-03    0.785E-05
DAV:  14    -0.659962799624E+02    0.19318E-08   -0.18350E-09  5016   0.329E-04
   7 F= -.65996280E+02 E0= -.65996787E+02  d E =-.847955E-01  mag=    -0.0000
       N       E                     dE             d eps       ncg     rms          rms(c)
DAV:   1    -0.647487810712E+02    0.12475E+01   -0.47227E+01 11752   0.170E+02    0.985E+00
DAV:   2    -0.674778636832E+02   -0.27291E+01   -0.29880E+01 10504   0.391E+01    0.108E+01
DAV:   3    -0.661603178491E+02    0.13175E+01   -0.52109E+00 10120   0.235E+01    0.461E+00
DAV:   4    -0.661212317196E+02    0.39086E-01   -0.76918E-01 11040   0.965E+00    0.313E+00
DAV:   5    -0.660456080779E+02    0.75624E-01   -0.12263E-01 10304   0.459E+00    0.134E+00
DAV:   6    -0.660561432366E+02   -0.10535E-01   -0.96313E-02 11056   0.602E+00    0.194E+00
DAV:   7    -0.660276148470E+02    0.28528E-01   -0.51997E-02 11088   0.383E+00    0.213E-01
DAV:   8    -0.660278929926E+02   -0.27815E-03   -0.83360E-03  9952   0.619E-01    0.957E-02
DAV:   9    -0.660278890677E+02    0.39249E-05   -0.45155E-04 10328   0.220E-01    0.386E-02
DAV:  10    -0.660278919760E+02   -0.29083E-05   -0.44838E-05 10896   0.494E-02    0.115E-02
DAV:  11    -0.660278905333E+02    0.14427E-05   -0.54231E-06 10432   0.242E-02    0.282E-03
DAV:  12    -0.660278901559E+02    0.37747E-06   -0.42165E-07 10232   0.562E-03    0.914E-04
DAV:  13    -0.660278900079E+02    0.14797E-06   -0.48827E-08  8496   0.218E-03    0.299E-04
DAV:  14    -0.660278899721E+02    0.35834E-07   -0.67512E-09  5016   0.787E-04    0.184E-04
DAV:  15    -0.660278899538E+02    0.18266E-07   -0.16882E-09  4960   0.375E-04    0.476E-05
DAV:  16    -0.660278899550E+02   -0.12260E-08   -0.47365E-10  4944   0.142E-04
   8 F= -.66027890E+02 E0= -.66028384E+02  d E =-.316100E-01  mag=     0.0000
       N       E                     dE             d eps       ncg     rms          rms(c)
DAV:   1    -0.660276872948E+02    0.20266E-03   -0.62172E-03 10616   0.196E+00    0.114E-01
DAV:   2    -0.660280769204E+02   -0.38963E-03   -0.44452E-03 10512   0.457E-01    0.124E-01
DAV:   3    -0.660279197369E+02    0.15718E-03   -0.69849E-04 10080   0.258E-01    0.597E-02
DAV:   4    -0.660279063693E+02    0.13368E-04   -0.10443E-04 10784   0.114E-01    0.357E-02
DAV:   5    -0.660278966767E+02    0.96925E-05   -0.17041E-05 10616   0.461E-02    0.131E-02
DAV:   6    -0.660278969024E+02   -0.22565E-06   -0.73670E-06 12552   0.400E-02    0.140E-02
DAV:   7    -0.660278956010E+02    0.13014E-05   -0.33737E-06 10424   0.354E-02    0.189E-03
DAV:   8    -0.660278957437E+02   -0.14268E-06   -0.57940E-07 10144   0.506E-03    0.117E-03
DAV:   9    -0.660278957484E+02   -0.46930E-08   -0.39130E-08  8712   0.220E-03
   9 F= -.66027896E+02 E0= -.66028389E+02  d E =-.316158E-01  mag=     0.0000
       N       E                     dE             d eps       ncg     rms          rms(c)
DAV:   1    -0.659565974348E+02    0.71298E-01   -0.23642E+00 10560   0.330E+01    0.171E+00
DAV:   2    -0.660487385740E+02   -0.92141E-01   -0.12483E+00  9280   0.717E+00    0.106E+00
DAV:   3    -0.660628535367E+02   -0.14115E-01   -0.10733E-01 10984   0.438E+00    0.213E+00
DAV:   4    -0.660358382176E+02    0.27015E-01   -0.71171E-02 11064   0.333E+00    0.480E-01
DAV:   5    -0.660378091897E+02   -0.19710E-02   -0.18959E-02 12480   0.223E+00    0.723E-01
DAV:   6    -0.660341276429E+02    0.36815E-02   -0.89149E-03 10504   0.178E+00    0.140E-01
DAV:   7    -0.660340241161E+02    0.10353E-03   -0.12735E-03 10192   0.286E-01    0.518E-02
DAV:   8    -0.660340181569E+02    0.59592E-05   -0.93208E-05 10904   0.895E-02    0.203E-02
DAV:   9    -0.660340237636E+02   -0.56066E-05   -0.22990E-05 10032   0.430E-02    0.862E-03
DAV:  10    -0.660340235677E+02    0.19588E-06   -0.26013E-06  9976   0.222E-02    0.188E-03
DAV:  11    -0.660340234798E+02    0.87879E-07   -0.30155E-07  9976   0.341E-03    0.683E-04
DAV:  12    -0.660340234817E+02   -0.18554E-08   -0.16023E-08  5536   0.900E-04
  10 F= -.66034023E+02 E0= -.66034255E+02  d E =-.612773E-02  mag=    -0.0000
       N       E                     dE             d eps       ncg     rms          rms(c)
DAV:   1    -0.660009098877E+02    0.33114E-01   -0.10547E+00 10480   0.220E+01    0.114E+00
DAV:   2    -0.660418457117E+02   -0.40936E-01   -0.55470E-01  9280   0.481E+00    0.713E-01
DAV:   3    -0.660482873104E+02   -0.64416E-02   -0.48724E-02 11280   0.297E+00    0.140E+00
DAV:   4    -0.660359233213E+02    0.12364E-01   -0.34250E-02 11160   0.228E+00    0.287E-01
DAV:   5    -0.660369604055E+02   -0.10371E-02   -0.78893E-03 12512   0.142E+00    0.481E-01
DAV:   6    -0.660353128905E+02    0.16475E-02   -0.37430E-03 10600   0.120E+00    0.786E-02
DAV:   7    -0.660352949911E+02    0.17899E-04   -0.53741E-04 10112   0.175E-01    0.340E-02
DAV:   8    -0.660352918826E+02    0.31084E-05   -0.38073E-05 10720   0.576E-02    0.137E-02
DAV:   9    -0.660352944492E+02   -0.25666E-05   -0.87136E-06 10192   0.282E-02    0.593E-03
DAV:  10    -0.660352943910E+02    0.58226E-07   -0.11448E-06  9936   0.153E-02    0.118E-03
DAV:  11    -0.660352943404E+02    0.50561E-07   -0.12811E-07  9792   0.224E-03    0.367E-04
DAV:  12    -0.660352943416E+02   -0.11714E-08   -0.73992E-09  4984   0.531E-04
  11 F= -.66035294E+02 E0= -.66035431E+02  d E =-.739859E-02  mag=     0.0000
       N       E                     dE             d eps       ncg     rms          rms(c)
DAV:   1    -0.660037001983E+02    0.31594E-01   -0.94410E-01 10584   0.231E+01    0.139E+00
DAV:   2    -0.660637963244E+02   -0.60096E-01   -0.68676E-01 10504   0.564E+00    0.146E+00
DAV:   3    -0.660402075900E+02    0.23589E-01   -0.94932E-02 10280   0.303E+00    0.619E-01
DAV:   4    -0.660396226721E+02    0.58492E-03   -0.15028E-02 10664   0.165E+00    0.554E-01
DAV:   5    -0.660373283690E+02    0.22943E-02   -0.49064E-03 10584   0.836E-01    0.177E-01
DAV:   6    -0.660378692025E+02   -0.54083E-03   -0.27262E-03 11680   0.949E-01    0.337E-01
DAV:   7    -0.660370233593E+02    0.84584E-03   -0.14719E-03 10592   0.788E-01    0.270E-02
DAV:   8    -0.660370381857E+02   -0.14826E-04   -0.22996E-04  9656   0.812E-02    0.171E-02
DAV:   9    -0.660370376823E+02    0.50346E-06   -0.13694E-05 11224   0.445E-02    0.735E-03
DAV:  10    -0.660370382039E+02   -0.52163E-06   -0.16628E-06 10056   0.142E-02    0.149E-03
DAV:  11    -0.660370383448E+02   -0.14086E-06   -0.17974E-07 11736   0.331E-03    0.605E-04
DAV:  12    -0.660370383990E+02   -0.54224E-07   -0.23242E-08  6232   0.133E-03    0.255E-04
DAV:  13    -0.660370384073E+02   -0.82728E-08   -0.33205E-09  4880   0.683E-04
  12 F= -.66037038E+02 E0= -.66037179E+02  d E =-.174407E-02  mag=    -0.0000
       N       E                     dE             d eps       ncg     rms          rms(c)
DAV:   1    -0.659989808905E+02    0.38058E-01   -0.10935E+00 10584   0.248E+01    0.149E+00
DAV:   2    -0.660686505124E+02   -0.69670E-01   -0.79451E-01 10528   0.606E+00    0.158E+00
DAV:   3    -0.660412639711E+02    0.27387E-01   -0.10926E-01 10280   0.325E+00    0.662E-01
DAV:   4    -0.660406101210E+02    0.65385E-03   -0.17180E-02 10744   0.178E+00    0.594E-01
DAV:   5    -0.660379678775E+02    0.26422E-02   -0.56493E-03 10600   0.905E-01    0.191E-01
DAV:   6    -0.660385889964E+02   -0.62112E-03   -0.31552E-03 11656   0.102E+00    0.362E-01
DAV:   7    -0.660376116210E+02    0.97738E-03   -0.17025E-03 10640   0.846E-01    0.290E-02
DAV:   8    -0.660376284981E+02   -0.16877E-04   -0.26460E-04  9680   0.874E-02    0.181E-02
DAV:   9    -0.660376279667E+02    0.53142E-06   -0.15703E-05 11240   0.472E-02    0.792E-03
DAV:  10    -0.660376285244E+02   -0.55775E-06   -0.19073E-06 10072   0.154E-02    0.159E-03
DAV:  11    -0.660376286765E+02   -0.15210E-06   -0.20875E-07 11704   0.355E-03    0.648E-04
DAV:  12    -0.660376287350E+02   -0.58488E-07   -0.27652E-08  7080   0.144E-03    0.275E-04
DAV:  13    -0.660376287448E+02   -0.97607E-08   -0.33432E-09  4896   0.708E-04
  13 F= -.66037629E+02 E0= -.66037824E+02  d E =-.233440E-02  mag=    -0.0000
       N       E                     dE             d eps       ncg     rms          rms(c)
DAV:   1    -0.660453681845E+02   -0.77394E-02   -0.62610E-01 10320   0.166E+01    0.179E+00
DAV:   2    -0.660968155764E+02   -0.51447E-01   -0.61311E-01 10248   0.651E+00    0.221E+00
DAV:   3    -0.660421442486E+02    0.54671E-01   -0.18227E-01 10088   0.416E+00    0.777E-01
DAV:   4    -0.660401443085E+02    0.19999E-02   -0.20668E-02 10784   0.161E+00    0.440E-01
DAV:   5    -0.660384214837E+02    0.17228E-02   -0.28385E-03 10432   0.614E-01    0.116E-01
DAV:   6    -0.660385604139E+02   -0.13893E-03   -0.10588E-03 12304   0.540E-01    0.194E-01
DAV:   7    -0.660382826124E+02    0.27780E-03   -0.51658E-04 10608   0.457E-01    0.196E-02
DAV:   8    -0.660382838576E+02   -0.12451E-05   -0.82722E-05 10040   0.593E-02    0.157E-02
DAV:   9    -0.660382819736E+02    0.18839E-05   -0.58510E-06 10752   0.313E-02    0.384E-03
DAV:  10    -0.660382816815E+02    0.29211E-06   -0.93804E-07 10416   0.984E-03    0.165E-03
DAV:  11    -0.660382815474E+02    0.13411E-06   -0.10817E-07  9816   0.329E-03    0.345E-04
DAV:  12    -0.660382815133E+02    0.34142E-07   -0.67304E-09  4936   0.988E-04    0.176E-04
DAV:  13    -0.660382814997E+02    0.13544E-07   -0.22179E-09  4856   0.493E-04    0.471E-05
DAV:  14    -0.660382814961E+02    0.36453E-08   -0.77226E-10  4760   0.173E-04
  14 F= -.66038281E+02 E0= -.66038534E+02  d E =-.652751E-03  mag=     0.0000
       N       E                     dE             d eps       ncg     rms          rms(c)
DAV:   1    -0.660382900089E+02   -0.85091E-05   -0.64107E-04 10288   0.530E-01    0.572E-02
DAV:   2    -0.660383401530E+02   -0.50144E-04   -0.63143E-04 10264   0.208E-01    0.708E-02
DAV:   3    -0.660382853977E+02    0.54755E-04   -0.18554E-04 10072   0.132E-01    0.248E-02
DAV:   4    -0.660382832907E+02    0.21070E-05   -0.20479E-05 11032   0.522E-02    0.136E-02
DAV:   5    -0.660382819221E+02    0.13685E-05   -0.27672E-06 10648   0.190E-02    0.384E-03
DAV:   6    -0.660382823245E+02   -0.40233E-06   -0.12015E-06 12112   0.188E-02    0.683E-03
DAV:   7    -0.660382820192E+02    0.30523E-06   -0.61096E-07 10616   0.159E-02    0.620E-04
DAV:   8    -0.660382820572E+02   -0.37962E-07   -0.94375E-08  8832   0.190E-03    0.488E-04
DAV:   9    -0.660382820781E+02   -0.20897E-07   -0.60281E-09  4728   0.109E-03    0.145E-04
DAV:  10    -0.660382820872E+02   -0.90622E-08   -0.18480E-09  4632   0.410E-04
  15 F= -.66038282E+02 E0= -.66038532E+02  d E =-.653342E-03  mag=     0.0000
       N       E                     dE             d eps       ncg     rms          rms(c)
DAV:   1    -0.660381181517E+02    0.16393E-03   -0.73274E-03 11912   0.183E+00    0.859E-02
DAV:   2    -0.660384028597E+02   -0.28471E-03   -0.35112E-03  9584   0.359E-01    0.639E-02
DAV:   3    -0.660383748981E+02    0.27962E-04   -0.25021E-04 10368   0.146E-01    0.456E-02
DAV:   4    -0.660383835864E+02   -0.86883E-05   -0.12877E-04 10888   0.140E-01    0.703E-02
DAV:   5    -0.660383509272E+02    0.32659E-04   -0.78976E-05 11032   0.107E-01    0.755E-03
DAV:   6    -0.660383505948E+02    0.33244E-06   -0.71543E-06 10488   0.203E-02    0.487E-03
DAV:   7    -0.660383505019E+02    0.92896E-07   -0.10166E-06 10296   0.154E-02    0.261E-03
DAV:   8    -0.660383504804E+02    0.21460E-07   -0.21500E-07 10392   0.564E-03    0.104E-03
DAV:   9    -0.660383505065E+02   -0.26081E-07   -0.47166E-08  7840   0.162E-03    0.240E-04
DAV:  10    -0.660383505032E+02    0.32524E-08   -0.38436E-09  4744   0.628E-04
  16 F= -.66038351E+02 E0= -.66038582E+02  d E =-.684161E-04  mag=     0.0000
       N       E                     dE             d eps       ncg     rms          rms(c)
DAV:   1    -0.660363563648E+02    0.19941E-02   -0.65957E-02 11912   0.548E+00    0.258E-01
DAV:   2    -0.660389060476E+02   -0.25497E-02   -0.31576E-02  9568   0.108E+00    0.192E-01
DAV:   3    -0.660386647839E+02    0.24126E-03   -0.22598E-03 10368   0.442E-01    0.138E-01
DAV:   4    -0.660387480911E+02   -0.83307E-04   -0.11777E-03 10856   0.423E-01    0.213E-01
DAV:   5    -0.660384467323E+02    0.30136E-03   -0.72921E-04 11280   0.320E-01    0.224E-02
DAV:   6    -0.660384461322E+02    0.60007E-06   -0.66457E-05 11088   0.695E-02    0.191E-02
DAV:   7    -0.660384442519E+02    0.18803E-05   -0.11203E-05 10144   0.546E-02    0.716E-03
DAV:   8    -0.660384441245E+02    0.12743E-06   -0.22150E-06 10480   0.153E-02    0.315E-03
DAV:   9    -0.660384442392E+02   -0.11471E-06   -0.38540E-07 10600   0.475E-03    0.734E-04
DAV:  10    -0.660384442289E+02    0.10317E-07   -0.27795E-08  6936   0.152E-03    0.300E-04
DAV:  11    -0.660384442137E+02    0.15167E-07   -0.47675E-09  4816   0.589E-04    0.569E-05
DAV:  12    -0.660384442094E+02    0.43219E-08   -0.12543E-09  4736   0.264E-04
  17 F= -.66038444E+02 E0= -.66038623E+02  d E =-.162122E-03  mag=     0.0000
       N       E                     dE             d eps       ncg     rms          rms(c)
DAV:   1    -0.660380447139E+02    0.39950E-03   -0.32436E-02 10680   0.383E+00    0.325E-01
DAV:   2    -0.660404015690E+02   -0.23569E-02   -0.26494E-02 10664   0.118E+00    0.400E-01
DAV:   3    -0.660385718097E+02    0.18298E-02   -0.61024E-03 10048   0.758E-01    0.128E-01
DAV:   4    -0.660385203368E+02    0.51473E-04   -0.56527E-04 10800   0.280E-01    0.709E-02
DAV:   5    -0.660384895410E+02    0.30796E-04   -0.57556E-05 12048   0.866E-02    0.419E-02
DAV:   6    -0.660384901616E+02   -0.62065E-06   -0.55723E-05 10592   0.138E-01    0.451E-02
DAV:   7    -0.660384756264E+02    0.14535E-04   -0.28560E-05 11176   0.925E-02    0.554E-03
DAV:   8    -0.660384760378E+02   -0.41140E-06   -0.51375E-06  9768   0.134E-02    0.212E-03
DAV:   9    -0.660384759882E+02    0.49658E-07   -0.41997E-07 10192   0.592E-03    0.139E-03
DAV:  10    -0.660384760486E+02   -0.60401E-07   -0.48337E-08  9200   0.186E-03    0.330E-04
DAV:  11    -0.660384760772E+02   -0.28573E-07   -0.47123E-09  4800   0.721E-04    0.103E-04
DAV:  12    -0.660384760927E+02   -0.15505E-07   -0.13837E-09  4680   0.287E-04    0.460E-05
DAV:  13    -0.660384760984E+02   -0.57335E-08   -0.38313E-10  4656   0.162E-04
  18 F= -.66038476E+02 E0= -.66038650E+02  d E =-.318890E-04  mag=     0.0000
       N       E                     dE             d eps       ncg     rms          rms(c)
DAV:   1    -0.660384589389E+02    0.17154E-04   -0.13759E-03 10680   0.789E-01    0.670E-02
DAV:   2    -0.660385562636E+02   -0.97325E-04   -0.11224E-03 10648   0.242E-01    0.823E-02
DAV:   3    -0.660384801695E+02    0.76094E-04   -0.25907E-04 10048   0.156E-01    0.260E-02
DAV:   4    -0.660384781379E+02    0.20316E-05   -0.23492E-05 10800   0.568E-02    0.147E-02
DAV:   5    -0.660384769789E+02    0.11590E-05   -0.24367E-06 11992   0.179E-02    0.858E-03
DAV:   6    -0.660384771365E+02   -0.15759E-06   -0.23722E-06 10616   0.284E-02    0.935E-03
DAV:   7    -0.660384767207E+02    0.41574E-06   -0.12181E-06 11176   0.194E-02    0.114E-03
DAV:   8    -0.660384767968E+02   -0.76088E-07   -0.21937E-07  9776   0.276E-03    0.440E-04
DAV:   9    -0.660384767956E+02    0.12078E-08   -0.15495E-08  4912   0.122E-03
  19 F= -.66038477E+02 E0= -.66038650E+02  d E =-.325862E-04  mag=     0.0000
       N       E                     dE             d eps       ncg     rms          rms(c)
DAV:   1    -0.660374074614E+02    0.10693E-02   -0.33330E-02 11128   0.412E+00    0.241E-01
DAV:   2    -0.660394040481E+02   -0.19966E-02   -0.21660E-02 10344   0.952E-01    0.277E-01
DAV:   3    -0.660385863079E+02    0.81774E-03   -0.33553E-03 10232   0.581E-01    0.112E-01
DAV:   4    -0.660385407635E+02    0.45544E-04   -0.40739E-04 10416   0.255E-01    0.665E-02
DAV:   5    -0.660385113278E+02    0.29436E-04   -0.48510E-05 10984   0.842E-02    0.376E-02
DAV:   6    -0.660385121406E+02   -0.81276E-06   -0.47067E-05 10672   0.124E-01    0.430E-02
DAV:   7    -0.660384957675E+02    0.16373E-04   -0.26887E-05 11768   0.912E-02    0.533E-03
DAV:   8    -0.660384955020E+02    0.26549E-06   -0.48465E-06 10200   0.139E-02    0.220E-03
DAV:   9    -0.660384955034E+02   -0.14406E-08   -0.28915E-07 10168   0.614E-03    0.111E-03
DAV:  10    -0.660384954523E+02    0.51106E-07   -0.41729E-08  8712   0.161E-03    0.271E-04
DAV:  11    -0.660384954256E+02    0.26739E-07   -0.35910E-09  4792   0.664E-04    0.948E-05
DAV:  12    -0.660384954129E+02    0.12642E-07   -0.97242E-10  4704   0.254E-04    0.471E-05
DAV:  13    -0.660384954110E+02    0.19281E-08   -0.37393E-10  4656   0.164E-04
  20 F= -.66038495E+02 E0= -.66038670E+02  d E =-.186154E-04  mag=     0.0000
       N       E                     dE             d eps       ncg     rms          rms(c)
DAV:   1    -0.660384898334E+02    0.55796E-05   -0.17864E-04 11064   0.302E-01    0.176E-02
DAV:   2    -0.660384996336E+02   -0.98002E-05   -0.11638E-04 10312   0.697E-02    0.203E-02
DAV:   3    -0.660384957475E+02    0.38861E-05   -0.17964E-05 10232   0.428E-02    0.832E-03
DAV:   4    -0.660384955208E+02    0.22666E-06   -0.22352E-06 10384   0.190E-02    0.485E-03
DAV:   5    -0.660384954279E+02    0.92870E-07   -0.25898E-07 11000   0.613E-03    0.278E-03
DAV:   6    -0.660384954754E+02   -0.47497E-07   -0.25107E-07 10416   0.906E-03    0.314E-03
DAV:   7    -0.660384955005E+02   -0.25091E-07   -0.14419E-07 11544   0.653E-03    0.400E-04
DAV:   8    -0.660384955161E+02   -0.15589E-07   -0.24348E-08  6584   0.102E-03    0.158E-04
DAV:   9    -0.660384955163E+02   -0.16371E-09   -0.26449E-09  4584   0.539E-04
  21 F= -.66038496E+02 E0= -.66038670E+02  d E =-.187207E-04  mag=     0.0000
