       N       E                     dE             d eps       ncg     rms          rms(c)
DAV:   1    -0.660752561605E+02   -0.66075E+02   -0.65409E-01  9072   0.682E+00    0.385E-01
DAV:   2    -0.660831484707E+02   -0.78923E-02   -0.31222E-02 10280   0.180E+00    0.909E-01
DAV:   3    -0.660761122907E+02    0.70362E-02   -0.23722E-02 10168   0.183E+00    0.493E-01
DAV:   4    -0.660749648539E+02    0.11474E-02   -0.39233E-03 10408   0.696E-01    0.463E-02
DAV:   5    -0.660749464347E+02    0.18419E-04   -0.42761E-04 10000   0.133E-01    0.397E-02
DAV:   6    -0.660749641240E+02   -0.17689E-04   -0.41323E-05 10200   0.108E-01    0.306E-02
DAV:   7    -0.660750031486E+02   -0.39025E-04   -0.21878E-05 10160   0.602E-02    0.565E-03
DAV:   8    -0.660750119294E+02   -0.87808E-05   -0.42868E-06  9984   0.133E-02    0.407E-03
DAV:   9    -0.660750020287E+02    0.99007E-05   -0.49747E-07  9896   0.651E-03    0.578E-04
DAV:  10    -0.660750020073E+02    0.21399E-07   -0.34136E-08  7912   0.110E-03    0.281E-04
DAV:  11    -0.660750018592E+02    0.14814E-06   -0.25706E-09  4672   0.424E-04    0.918E-05
DAV:  12    -0.660750017529E+02    0.10625E-06   -0.86527E-10  4640   0.196E-04    0.246E-05
DAV:  13    -0.660750017095E+02    0.43437E-07   -0.16710E-10  4632   0.882E-05    0.100E-05
DAV:  14    -0.660750017029E+02    0.65629E-08   -0.52702E-11  4608   0.533E-05
   1 F= -.66075002E+02 E0= -.66075002E+02  d E =0.000000E+00  mag=     0.0000
