   6   6   0   0
  0.1243490E+02  0.4627842E-09  0.4627842E-09  0.5020141E-09  0.5000000E-15
  1.000000000000000E-004
  CAR 
 unknown system                          
     24.55201251    -58.56529450  301      8.83902560      1.00000000
    -58.565  0.0000E+00  0.0000E+00  0.0000E+00  0.0000E+00
    -58.288  0.0000E+00  0.0000E+00  0.0000E+00  0.0000E+00
    -58.011  0.0000E+00  0.0000E+00  0.0000E+00  0.0000E+00
    -57.734  0.0000E+00  0.0000E+00  0.0000E+00  0.0000E+00
    -57.457  0.0000E+00  0.0000E+00  0.0000E+00  0.0000E+00
    -57.180  0.0000E+00  0.0000E+00  0.0000E+00  0.0000E+00
    -56.903  0.0000E+00  0.0000E+00  0.0000E+00  0.0000E+00
    -56.626  0.0000E+00  0.0000E+00  0.0000E+00  0.0000E+00
    -56.349  0.0000E+00  0.0000E+00  0.0000E+00  0.0000E+00
    -56.072  0.0000E+00  0.0000E+00  0.0000E+00  0.0000E+00
    -55.795  0.0000E+00  0.0000E+00  0.0000E+00  0.0000E+00
    -55.518  0.0000E+00  0.0000E+00  0.0000E+00  0.0000E+00
    -55.241  0.0000E+00  0.0000E+00  0.0000E+00  0.0000E+00
    -54.964  0.0000E+00  0.0000E+00  0.0000E+00  0.0000E+00
    -54.686  0.0000E+00  0.0000E+00  0.8000E+01  0.8000E+01
    -54.409  0.0000E+00  0.0000E+00  0.9000E+01  0.9000E+01
    -54.132  0.0000E+00  0.0000E+00  0.9000E+01  0.9000E+01
    -53.855  0.0000E+00  0.0000E+00  0.9000E+01  0.9000E+01
    -53.578  0.0000E+00  0.0000E+00  0.9000E+01  0.9000E+01
    -53.301  0.0000E+00  0.0000E+00  0.9000E+01  0.9000E+01
    -53.024  0.0000E+00  0.0000E+00  0.9000E+01  0.9000E+01
    -52.747  0.0000E+00  0.0000E+00  0.9000E+01  0.9000E+01
    -52.470  0.0000E+00  0.0000E+00  0.9000E+01  0.9000E+01
    -52.193  0.0000E+00  0.0000E+00  0.9000E+01  0.9000E+01
    -51.916  0.0000E+00  0.0000E+00  0.9000E+01  0.9000E+01
    -51.639  0.0000E+00  0.0000E+00  0.9000E+01  0.9000E+01
    -51.362  0.0000E+00  0.0000E+00  0.9000E+01  0.9000E+01
    -51.085  0.0000E+00  0.0000E+00  0.9000E+01  0.9000E+01
    -50.808  0.0000E+00  0.0000E+00  0.9000E+01  0.9000E+01
    -50.531  0.0000E+00  0.0000E+00  0.9000E+01  0.9000E+01
    -50.254  0.0000E+00  0.0000E+00  0.9000E+01  0.9000E+01
    -49.977  0.0000E+00  0.0000E+00  0.9000E+01  0.9000E+01
    -49.699  0.0000E+00  0.0000E+00  0.9000E+01  0.9000E+01
    -49.422  0.0000E+00  0.0000E+00  0.9000E+01  0.9000E+01
    -49.145  0.0000E+00  0.0000E+00  0.9000E+01  0.9000E+01
    -48.868  0.0000E+00  0.0000E+00  0.9000E+01  0.9000E+01
    -48.591  0.0000E+00  0.0000E+00  0.9000E+01  0.9000E+01
    -48.314  0.0000E+00  0.0000E+00  0.9000E+01  0.9000E+01
    -48.037  0.0000E+00  0.0000E+00  0.9000E+01  0.9000E+01
    -47.760  0.0000E+00  0.0000E+00  0.9000E+01  0.9000E+01
    -47.483  0.0000E+00  0.0000E+00  0.9000E+01  0.9000E+01
    -47.206  0.0000E+00  0.0000E+00  0.9000E+01  0.9000E+01
    -46.929  0.0000E+00  0.0000E+00  0.9000E+01  0.9000E+01
    -46.652  0.0000E+00  0.0000E+00  0.9000E+01  0.9000E+01
    -46.375  0.0000E+00  0.0000E+00  0.9000E+01  0.9000E+01
    -46.098  0.0000E+00  0.0000E+00  0.9000E+01  0.9000E+01
    -45.821  0.0000E+00  0.0000E+00  0.9000E+01  0.9000E+01
    -45.544  0.0000E+00  0.0000E+00  0.9000E+01  0.9000E+01
    -45.267  0.0000E+00  0.0000E+00  0.9000E+01  0.9000E+01
    -44.989  0.0000E+00  0.0000E+00  0.9000E+01  0.9000E+01
    -44.712  0.0000E+00  0.0000E+00  0.9000E+01  0.9000E+01
    -44.435  0.0000E+00  0.0000E+00  0.9000E+01  0.9000E+01
    -44.158  0.0000E+00  0.0000E+00  0.9000E+01  0.9000E+01
    -43.881  0.0000E+00  0.0000E+00  0.9000E+01  0.9000E+01
    -43.604  0.0000E+00  0.0000E+00  0.9000E+01  0.9000E+01
    -43.327  0.0000E+00  0.0000E+00  0.9000E+01  0.9000E+01
    -43.050  0.0000E+00  0.0000E+00  0.9000E+01  0.9000E+01
    -42.773  0.0000E+00  0.0000E+00  0.9000E+01  0.9000E+01
    -42.496  0.0000E+00  0.0000E+00  0.9000E+01  0.9000E+01
    -42.219  0.0000E+00  0.0000E+00  0.9000E+01  0.9000E+01
    -41.942  0.0000E+00  0.0000E+00  0.9000E+01  0.9000E+01
    -41.665  0.0000E+00  0.0000E+00  0.9000E+01  0.9000E+01
    -41.388  0.0000E+00  0.0000E+00  0.9000E+01  0.9000E+01
    -41.111  0.0000E+00  0.0000E+00  0.9000E+01  0.9000E+01
    -40.834  0.0000E+00  0.0000E+00  0.9000E+01  0.9000E+01
    -40.557  0.0000E+00  0.0000E+00  0.9000E+01  0.9000E+01
    -40.279  0.0000E+00  0.0000E+00  0.9000E+01  0.9000E+01
    -40.002  0.0000E+00  0.0000E+00  0.9000E+01  0.9000E+01
    -39.725  0.0000E+00  0.0000E+00  0.9000E+01  0.9000E+01
    -39.448  0.0000E+00  0.0000E+00  0.9000E+01  0.9000E+01
    -39.171  0.0000E+00  0.0000E+00  0.9000E+01  0.9000E+01
    -38.894  0.0000E+00  0.0000E+00  0.9000E+01  0.9000E+01
    -38.617  0.0000E+00  0.0000E+00  0.9000E+01  0.9000E+01
    -38.340  0.0000E+00  0.0000E+00  0.9000E+01  0.9000E+01
    -38.063  0.0000E+00  0.0000E+00  0.9000E+01  0.9000E+01
    -37.786  0.0000E+00  0.0000E+00  0.9000E+01  0.9000E+01
    -37.509  0.0000E+00  0.0000E+00  0.9000E+01  0.9000E+01
    -37.232  0.0000E+00  0.0000E+00  0.9000E+01  0.9000E+01
    -36.955  0.0000E+00  0.0000E+00  0.9000E+01  0.9000E+01
    -36.678  0.0000E+00  0.0000E+00  0.9000E+01  0.9000E+01
    -36.401  0.0000E+00  0.0000E+00  0.9000E+01  0.9000E+01
    -36.124  0.0000E+00  0.0000E+00  0.9000E+01  0.9000E+01
    -35.847  0.0000E+00  0.0000E+00  0.9000E+01  0.9000E+01
    -35.570  0.0000E+00  0.0000E+00  0.9000E+01  0.9000E+01
    -35.292  0.0000E+00  0.0000E+00  0.9000E+01  0.9000E+01
    -35.015  0.0000E+00  0.0000E+00  0.9000E+01  0.9000E+01
    -34.738  0.0000E+00  0.0000E+00  0.9000E+01  0.9000E+01
    -34.461  0.0000E+00  0.0000E+00  0.9000E+01  0.9000E+01
    -34.184  0.0000E+00  0.0000E+00  0.9000E+01  0.9000E+01
    -33.907  0.0000E+00  0.0000E+00  0.9000E+01  0.9000E+01
    -33.630  0.0000E+00  0.0000E+00  0.9000E+01  0.9000E+01
    -33.353  0.0000E+00  0.0000E+00  0.9000E+01  0.9000E+01
    -33.076  0.0000E+00  0.0000E+00  0.9000E+01  0.9000E+01
    -32.799  0.0000E+00  0.0000E+00  0.9000E+01  0.9000E+01
    -32.522  0.0000E+00  0.0000E+00  0.9000E+01  0.9000E+01
    -32.245  0.0000E+00  0.0000E+00  0.9000E+01  0.9000E+01
    -31.968  0.0000E+00  0.0000E+00  0.9000E+01  0.9000E+01
    -31.691  0.0000E+00  0.0000E+00  0.9000E+01  0.9000E+01
    -31.414  0.0000E+00  0.0000E+00  0.9000E+01  0.9000E+01
    -31.137  0.0000E+00  0.0000E+00  0.9000E+01  0.9000E+01
    -30.860  0.0000E+00  0.0000E+00  0.9000E+01  0.9000E+01
    -30.582  0.0000E+00  0.0000E+00  0.9000E+01  0.9000E+01
    -30.305  0.0000E+00  0.0000E+00  0.9000E+01  0.9000E+01
    -30.028  0.0000E+00  0.0000E+00  0.9000E+01  0.9000E+01
    -29.751  0.0000E+00  0.0000E+00  0.9000E+01  0.9000E+01
    -29.474  0.0000E+00  0.0000E+00  0.9000E+01  0.9000E+01
    -29.197  0.0000E+00  0.0000E+00  0.9000E+01  0.9000E+01
    -28.920  0.0000E+00  0.0000E+00  0.9000E+01  0.9000E+01
    -28.643  0.0000E+00  0.0000E+00  0.9000E+01  0.9000E+01
    -28.366  0.0000E+00  0.0000E+00  0.9000E+01  0.9000E+01
    -28.089  0.0000E+00  0.0000E+00  0.9000E+01  0.9000E+01
    -27.812  0.0000E+00  0.0000E+00  0.9000E+01  0.9000E+01
    -27.535  0.0000E+00  0.0000E+00  0.9000E+01  0.9000E+01
    -27.258  0.0000E+00  0.0000E+00  0.9000E+01  0.9000E+01
    -26.981  0.0000E+00  0.0000E+00  0.9000E+01  0.9000E+01
    -26.704  0.0000E+00  0.0000E+00  0.9000E+01  0.9000E+01
    -26.427  0.0000E+00  0.0000E+00  0.9000E+01  0.9000E+01
    -26.150  0.0000E+00  0.0000E+00  0.9000E+01  0.9000E+01
    -25.872  0.0000E+00  0.0000E+00  0.9000E+01  0.9000E+01
    -25.595  0.0000E+00  0.0000E+00  0.9000E+01  0.9000E+01
    -25.318  0.0000E+00  0.0000E+00  0.9000E+01  0.9000E+01
    -25.041  0.0000E+00  0.0000E+00  0.9000E+01  0.9000E+01
    -24.764  0.0000E+00  0.0000E+00  0.9000E+01  0.9000E+01
    -24.487  0.0000E+00  0.0000E+00  0.9000E+01  0.9000E+01
    -24.210  0.0000E+00  0.0000E+00  0.9000E+01  0.9000E+01
    -23.933  0.0000E+00  0.0000E+00  0.9000E+01  0.9000E+01
    -23.656  0.0000E+00  0.0000E+00  0.9000E+01  0.9000E+01
    -23.379  0.0000E+00  0.0000E+00  0.9000E+01  0.9000E+01
    -23.102  0.0000E+00  0.0000E+00  0.9000E+01  0.9000E+01
    -22.825  0.0000E+00  0.0000E+00  0.9000E+01  0.9000E+01
    -22.548  0.0000E+00  0.0000E+00  0.9000E+01  0.9000E+01
    -22.271  0.0000E+00  0.0000E+00  0.9000E+01  0.9000E+01
    -21.994  0.0000E+00  0.0000E+00  0.9000E+01  0.9000E+01
    -21.717  0.0000E+00  0.0000E+00  0.9000E+01  0.9000E+01
    -21.440  0.0000E+00  0.0000E+00  0.9000E+01  0.9000E+01
    -21.163  0.0000E+00  0.0000E+00  0.9000E+01  0.9000E+01
    -20.885  0.0000E+00  0.0000E+00  0.9000E+01  0.9000E+01
    -20.608  0.0000E+00  0.0000E+00  0.9000E+01  0.9000E+01
    -20.331  0.0000E+00  0.0000E+00  0.9000E+01  0.9000E+01
    -20.054  0.0000E+00  0.0000E+00  0.9000E+01  0.9000E+01
    -19.777  0.0000E+00  0.0000E+00  0.9000E+01  0.9000E+01
    -19.500  0.0000E+00  0.0000E+00  0.9000E+01  0.9000E+01
    -19.223  0.0000E+00  0.0000E+00  0.9000E+01  0.9000E+01
    -18.946  0.0000E+00  0.0000E+00  0.9000E+01  0.9000E+01
    -18.669  0.0000E+00  0.0000E+00  0.9000E+01  0.9000E+01
    -18.392  0.0000E+00  0.0000E+00  0.9000E+01  0.9000E+01
    -18.115  0.0000E+00  0.0000E+00  0.9000E+01  0.9000E+01
    -17.838  0.0000E+00  0.0000E+00  0.9000E+01  0.9000E+01
    -17.561  0.0000E+00  0.0000E+00  0.9000E+01  0.9000E+01
    -17.284  0.0000E+00  0.0000E+00  0.9000E+01  0.9000E+01
    -17.007  0.0000E+00  0.0000E+00  0.9000E+01  0.9000E+01
    -16.730  0.0000E+00  0.0000E+00  0.9000E+01  0.9000E+01
    -16.453  0.0000E+00  0.0000E+00  0.9000E+01  0.9000E+01
    -16.175  0.0000E+00  0.0000E+00  0.9000E+01  0.9000E+01
    -15.898  0.0000E+00  0.0000E+00  0.9000E+01  0.9000E+01
    -15.621  0.0000E+00  0.0000E+00  0.9000E+01  0.9000E+01
    -15.344  0.0000E+00  0.0000E+00  0.9000E+01  0.9000E+01
    -15.067  0.0000E+00  0.0000E+00  0.9000E+01  0.9000E+01
    -14.790  0.0000E+00  0.0000E+00  0.9000E+01  0.9000E+01
    -14.513  0.0000E+00  0.0000E+00  0.9000E+01  0.9000E+01
    -14.236  0.0000E+00  0.0000E+00  0.9000E+01  0.9000E+01
    -13.959  0.0000E+00  0.0000E+00  0.9000E+01  0.9000E+01
    -13.682  0.0000E+00  0.0000E+00  0.9000E+01  0.9000E+01
    -13.405  0.0000E+00  0.0000E+00  0.9000E+01  0.9000E+01
    -13.128  0.0000E+00  0.0000E+00  0.9000E+01  0.9000E+01
    -12.851  0.0000E+00  0.0000E+00  0.9000E+01  0.9000E+01
    -12.574  0.0000E+00  0.0000E+00  0.9000E+01  0.9000E+01
    -12.297  0.0000E+00  0.0000E+00  0.9000E+01  0.9000E+01
    -12.020  0.0000E+00  0.0000E+00  0.9000E+01  0.9000E+01
    -11.743  0.0000E+00  0.0000E+00  0.9000E+01  0.9000E+01
    -11.465  0.0000E+00  0.0000E+00  0.9000E+01  0.9000E+01
    -11.188  0.0000E+00  0.0000E+00  0.9000E+01  0.9000E+01
    -10.911  0.0000E+00  0.0000E+00  0.9000E+01  0.9000E+01
    -10.634  0.0000E+00  0.0000E+00  0.9000E+01  0.9000E+01
    -10.357  0.0000E+00  0.0000E+00  0.9000E+01  0.9000E+01
    -10.080  0.0000E+00  0.0000E+00  0.9000E+01  0.9000E+01
     -9.803  0.0000E+00  0.0000E+00  0.9000E+01  0.9000E+01
     -9.526  0.0000E+00  0.0000E+00  0.9000E+01  0.9000E+01
     -9.249  0.0000E+00  0.0000E+00  0.9000E+01  0.9000E+01
     -8.972  0.0000E+00  0.0000E+00  0.9000E+01  0.9000E+01
     -8.695  0.0000E+00  0.0000E+00  0.9000E+01  0.9000E+01
     -8.418  0.0000E+00  0.0000E+00  0.9000E+01  0.9000E+01
     -8.141  0.0000E+00  0.0000E+00  0.9000E+01  0.9000E+01
     -7.864  0.0000E+00  0.0000E+00  0.9000E+01  0.9000E+01
     -7.587  0.0000E+00  0.0000E+00  0.9000E+01  0.9000E+01
     -7.310  0.0000E+00  0.0000E+00  0.9000E+01  0.9000E+01
     -7.033  0.0000E+00  0.0000E+00  0.9000E+01  0.9000E+01
     -6.756  0.0000E+00  0.0000E+00  0.9000E+01  0.9000E+01
     -6.478  0.0000E+00  0.0000E+00  0.9000E+01  0.9000E+01
     -6.201  0.0000E+00  0.0000E+00  0.9000E+01  0.9000E+01
     -5.924  0.0000E+00  0.0000E+00  0.9000E+01  0.9000E+01
     -5.647  0.0000E+00  0.0000E+00  0.9000E+01  0.9000E+01
     -5.370  0.0000E+00  0.0000E+00  0.9000E+01  0.9000E+01
     -5.093  0.0000E+00  0.0000E+00  0.9000E+01  0.9000E+01
     -4.816  0.0000E+00  0.0000E+00  0.9000E+01  0.9000E+01
     -4.539  0.0000E+00  0.0000E+00  0.9000E+01  0.9000E+01
     -4.262  0.0000E+00  0.0000E+00  0.9000E+01  0.9000E+01
     -3.985  0.0000E+00  0.0000E+00  0.9000E+01  0.9000E+01
     -3.708  0.0000E+00  0.0000E+00  0.9000E+01  0.9000E+01
     -3.431  0.0000E+00  0.0000E+00  0.9000E+01  0.9000E+01
     -3.154  0.0000E+00  0.0000E+00  0.9000E+01  0.9000E+01
     -2.877  0.0000E+00  0.0000E+00  0.9000E+01  0.9000E+01
     -2.600  0.0000E+00  0.0000E+00  0.9000E+01  0.9000E+01
     -2.323  0.0000E+00  0.0000E+00  0.9000E+01  0.9000E+01
     -2.046  0.7209E-02  0.7209E-02  0.9000E+01  0.9000E+01
     -1.768  0.1399E+00  0.1399E+00  0.9020E+01  0.9020E+01
     -1.491  0.1863E+00  0.1863E+00  0.9064E+01  0.9064E+01
     -1.214  0.2461E+00  0.2461E+00  0.9124E+01  0.9124E+01
     -0.937  0.3268E+00  0.3268E+00  0.9203E+01  0.9203E+01
     -0.660  0.3482E+00  0.3482E+00  0.9299E+01  0.9299E+01
     -0.383  0.3677E+00  0.3677E+00  0.9398E+01  0.9398E+01
     -0.106  0.4219E+00  0.4219E+00  0.9504E+01  0.9504E+01
      0.171  0.4100E+00  0.4100E+00  0.9627E+01  0.9627E+01
      0.448  0.3795E+00  0.3795E+00  0.9733E+01  0.9733E+01
      0.725  0.5277E+00  0.5277E+00  0.9865E+01  0.9865E+01
      1.002  0.6698E+00  0.6698E+00  0.1001E+02  0.1001E+02
      1.279  0.4103E+00  0.4103E+00  0.1015E+02  0.1015E+02
      1.556  0.4232E+00  0.4232E+00  0.1025E+02  0.1025E+02
      1.833  0.7212E+00  0.7212E+00  0.1040E+02  0.1040E+02
      2.110  0.7179E+00  0.7179E+00  0.1061E+02  0.1061E+02
      2.387  0.6697E+00  0.6697E+00  0.1080E+02  0.1080E+02
      2.664  0.6936E+00  0.6936E+00  0.1099E+02  0.1099E+02
      2.942  0.8865E+00  0.8865E+00  0.1121E+02  0.1121E+02
      3.219  0.8631E+00  0.8631E+00  0.1146E+02  0.1146E+02
      3.496  0.8978E+00  0.8978E+00  0.1169E+02  0.1169E+02
      3.773  0.8018E+00  0.8018E+00  0.1192E+02  0.1192E+02
      4.050  0.9556E+00  0.9556E+00  0.1216E+02  0.1216E+02
      4.327  0.1469E+01  0.1469E+01  0.1250E+02  0.1250E+02
      4.604  0.1185E+01  0.1185E+01  0.1287E+02  0.1287E+02
      4.881  0.1719E+01  0.1719E+01  0.1325E+02  0.1325E+02
      5.158  0.1908E+01  0.1908E+01  0.1377E+02  0.1377E+02
      5.435  0.2635E+01  0.2635E+01  0.1440E+02  0.1440E+02
      5.712  0.3328E+01  0.3328E+01  0.1530E+02  0.1530E+02
      5.989  0.4441E+01  0.4441E+01  0.1665E+02  0.1665E+02
      6.266  0.3888E+01  0.3888E+01  0.1791E+02  0.1791E+02
      6.543  0.4200E+01  0.4200E+01  0.1955E+02  0.1955E+02
      6.820  0.4680E+01  0.4680E+01  0.2086E+02  0.2086E+02
      7.097  0.1072E+02  0.1072E+02  0.2291E+02  0.2291E+02
      7.374  0.5988E+01  0.5988E+01  0.2473E+02  0.2473E+02
      7.651  0.3135E+01  0.3135E+01  0.2620E+02  0.2620E+02
      7.929  0.2295E+01  0.2295E+01  0.2699E+02  0.2699E+02
      8.206  0.1284E+01  0.1284E+01  0.2752E+02  0.2752E+02
      8.483  0.1574E+01  0.1574E+01  0.2796E+02  0.2796E+02
      8.760  0.1505E+01  0.1505E+01  0.2838E+02  0.2838E+02
      9.037  0.1335E+01  0.1335E+01  0.2877E+02  0.2877E+02
      9.314  0.1134E+01  0.1134E+01  0.2911E+02  0.2911E+02
      9.591  0.8537E+00  0.8537E+00  0.2939E+02  0.2939E+02
      9.868  0.7421E+00  0.7421E+00  0.2961E+02  0.2961E+02
     10.145  0.4790E+00  0.4790E+00  0.2979E+02  0.2979E+02
     10.422  0.1277E+01  0.1277E+01  0.3004E+02  0.3004E+02
     10.699  0.1199E+01  0.1199E+01  0.3040E+02  0.3040E+02
     10.976  0.1038E+01  0.1038E+01  0.3071E+02  0.3071E+02
     11.253  0.1144E+01  0.1144E+01  0.3102E+02  0.3102E+02
     11.530  0.1083E+01  0.1083E+01  0.3134E+02  0.3134E+02
     11.807  0.8783E+00  0.8783E+00  0.3162E+02  0.3162E+02
     12.084  0.7914E+00  0.7914E+00  0.3185E+02  0.3185E+02
     12.361  0.7892E+00  0.7892E+00  0.3206E+02  0.3206E+02
     12.639  0.8284E+00  0.8284E+00  0.3229E+02  0.3229E+02
     12.916  0.1141E+01  0.1141E+01  0.3258E+02  0.3258E+02
     13.193  0.1194E+01  0.1194E+01  0.3291E+02  0.3291E+02
     13.470  0.1122E+01  0.1122E+01  0.3324E+02  0.3324E+02
     13.747  0.1099E+01  0.1099E+01  0.3357E+02  0.3357E+02
     14.024  0.1078E+01  0.1078E+01  0.3389E+02  0.3389E+02
     14.301  0.1136E+01  0.1136E+01  0.3421E+02  0.3421E+02
     14.578  0.1233E+01  0.1233E+01  0.3454E+02  0.3454E+02
     14.855  0.1374E+01  0.1374E+01  0.3492E+02  0.3492E+02
     15.132  0.1134E+01  0.1134E+01  0.3526E+02  0.3526E+02
     15.409  0.1167E+01  0.1167E+01  0.3559E+02  0.3559E+02
     15.686  0.1133E+01  0.1133E+01  0.3590E+02  0.3590E+02
     15.963  0.1161E+01  0.1161E+01  0.3622E+02  0.3622E+02
     16.240  0.1069E+01  0.1069E+01  0.3653E+02  0.3653E+02
     16.517  0.1221E+01  0.1221E+01  0.3684E+02  0.3684E+02
     16.794  0.1275E+01  0.1275E+01  0.3722E+02  0.3722E+02
     17.071  0.1059E+01  0.1059E+01  0.3754E+02  0.3754E+02
     17.349  0.1360E+01  0.1360E+01  0.3786E+02  0.3786E+02
     17.626  0.1393E+01  0.1393E+01  0.3827E+02  0.3827E+02
     17.903  0.1264E+01  0.1264E+01  0.3863E+02  0.3863E+02
     18.180  0.1300E+01  0.1300E+01  0.3898E+02  0.3898E+02
     18.457  0.9955E+00  0.9955E+00  0.3930E+02  0.3930E+02
     18.734  0.7596E+00  0.7596E+00  0.3954E+02  0.3954E+02
     19.011  0.5127E+00  0.5127E+00  0.3972E+02  0.3972E+02
     19.288  0.3147E+00  0.3147E+00  0.3982E+02  0.3982E+02
     19.565  0.2306E+00  0.2306E+00  0.3990E+02  0.3990E+02
     19.842  0.1261E+00  0.1261E+00  0.3995E+02  0.3995E+02
     20.119  0.7557E-01  0.7557E-01  0.3998E+02  0.3998E+02
     20.396  0.4142E-01  0.4142E-01  0.3999E+02  0.3999E+02
     20.673  0.1252E-01  0.1252E-01  0.4000E+02  0.4000E+02
     20.950  0.0000E+00  0.0000E+00  0.4000E+02  0.4000E+02
     21.227  0.0000E+00  0.0000E+00  0.4000E+02  0.4000E+02
     21.504  0.0000E+00  0.0000E+00  0.4000E+02  0.4000E+02
     21.781  0.0000E+00  0.0000E+00  0.4000E+02  0.4000E+02
     22.058  0.0000E+00  0.0000E+00  0.4000E+02  0.4000E+02
     22.336  0.0000E+00  0.0000E+00  0.4000E+02  0.4000E+02
     22.613  0.0000E+00  0.0000E+00  0.4000E+02  0.4000E+02
     22.890  0.0000E+00  0.0000E+00  0.4000E+02  0.4000E+02
     23.167  0.0000E+00  0.0000E+00  0.4000E+02  0.4000E+02
     23.444  0.0000E+00  0.0000E+00  0.4000E+02  0.4000E+02
     23.721  0.0000E+00  0.0000E+00  0.4000E+02  0.4000E+02
     23.998  0.0000E+00  0.0000E+00  0.4000E+02  0.4000E+02
     24.275  0.0000E+00  0.0000E+00  0.4000E+02  0.4000E+02
     24.552  0.0000E+00  0.0000E+00  0.4000E+02  0.4000E+02
