       N       E                     dE             d eps       ncg     rms          rms(c)
DAV:   1    -0.316256059759E+02   -0.31626E+02   -0.29668E-01  8800   0.650E+00    0.155E-01
DAV:   2    -0.316265244210E+02   -0.91845E-03   -0.41760E-03 11408   0.119E+00    0.318E-01
DAV:   3    -0.316255367440E+02    0.98768E-03   -0.30571E-03 10304   0.105E+00    0.932E-02
DAV:   4    -0.316255545308E+02   -0.17787E-04   -0.42238E-04 10368   0.322E-01    0.498E-02
DAV:   5    -0.316255719217E+02   -0.17391E-04   -0.79713E-05 12064   0.122E-01    0.129E-02
DAV:   6    -0.316255803722E+02   -0.84504E-05   -0.14075E-05 10752   0.502E-02    0.809E-03
DAV:   7    -0.316255750377E+02    0.53344E-05   -0.20965E-06 10256   0.233E-02    0.111E-03
DAV:   8    -0.316255745705E+02    0.46725E-06   -0.18379E-07  9872   0.391E-03    0.747E-04
DAV:   9    -0.316255745332E+02    0.37247E-07   -0.24761E-08  6640   0.185E-03    0.117E-04
DAV:  10    -0.316255745557E+02   -0.22501E-07   -0.28487E-09  4864   0.573E-04    0.581E-05
DAV:  11    -0.316255745354E+02    0.20313E-07   -0.58623E-10  4864   0.269E-04    0.117E-05
DAV:  12    -0.316255745382E+02   -0.27521E-08   -0.17150E-10  4720   0.127E-04
   1 F= -.31625575E+02 E0= -.31625575E+02  d E =0.000000E+00  mag=     0.0000
