       N       E                     dE             d eps       ncg     rms          rms(c)
DAV:   1     0.636211522367E+03    0.63621E+03   -0.32634E+04 10592   0.157E+03
DAV:   2     0.193074503981E+01   -0.63428E+03   -0.60338E+03  9144   0.507E+02
DAV:   3    -0.339772202719E+02   -0.35908E+02   -0.34304E+02 10328   0.140E+02
DAV:   4    -0.348573283658E+02   -0.88011E+00   -0.87774E+00  9888   0.213E+01
DAV:   5    -0.348826536958E+02   -0.25325E-01   -0.25324E-01 10752   0.377E+00    0.252E+01
DAV:   6    -0.476127023291E+02   -0.12730E+02   -0.11081E+02 10232   0.135E+02    0.348E+01
DAV:   7    -0.302075945649E+02    0.17405E+02   -0.42589E+01 10152   0.869E+01    0.570E+00
DAV:   8    -0.301334790396E+02    0.74116E-01   -0.36031E+00 12192   0.162E+01    0.327E+00
DAV:   9    -0.301113686036E+02    0.22110E-01   -0.65368E-01 10504   0.122E+01    0.308E+00
DAV:  10    -0.300411324555E+02    0.70236E-01   -0.23327E-01 10152   0.923E+00    0.849E-01
DAV:  11    -0.300402969453E+02    0.83551E-03   -0.22387E-02 10208   0.120E+00    0.465E-01
DAV:  12    -0.300388803499E+02    0.14166E-02   -0.81294E-03 11952   0.975E-01    0.177E-01
DAV:  13    -0.300387996686E+02    0.80681E-04   -0.69929E-04  9968   0.239E-01    0.121E-01
DAV:  14    -0.300386363781E+02    0.16329E-03   -0.26592E-04 12584   0.157E-01    0.251E-02
DAV:  15    -0.300386320918E+02    0.42862E-05   -0.46434E-05 12056   0.584E-02    0.811E-03
DAV:  16    -0.300386314374E+02    0.65441E-06   -0.25575E-06 10400   0.149E-02    0.348E-03
DAV:  17    -0.300386312385E+02    0.19894E-06   -0.22978E-07 10832   0.552E-03    0.125E-03
DAV:  18    -0.300386311051E+02    0.13341E-06   -0.29250E-08  8512   0.159E-03    0.481E-04
DAV:  19    -0.300386310447E+02    0.60340E-07   -0.12507E-08  5520   0.106E-03    0.110E-04
DAV:  20    -0.300386310432E+02    0.15498E-08   -0.24461E-09  5008   0.404E-04
   1 F= -.30038631E+02 E0= -.30038865E+02  d E =-.300386E+02  mag=     0.0000
       N       E                     dE             d eps       ncg     rms          rms(c)
DAV:   1    -0.153546761505E+03   -0.12351E+03   -0.16552E+03  8800   0.588E+02    0.849E+01
DAV:   2    -0.719201915273E+02    0.81627E+02   -0.76799E+02 10544   0.250E+02    0.560E+01
DAV:   3    -0.508678171561E+02    0.21052E+02   -0.26592E+02 10064   0.173E+02    0.393E+01
DAV:   4    -0.319312344120E+02    0.18937E+02   -0.61831E+01 10560   0.933E+01    0.610E+00
DAV:   5    -0.315045086349E+02    0.42673E+00   -0.31101E+00 11520   0.210E+01    0.575E+00
DAV:   6    -0.313314285383E+02    0.17308E+00   -0.22199E+00 10160   0.254E+01    0.736E+00
DAV:   7    -0.308117096323E+02    0.51972E+00   -0.90685E-01 11056   0.130E+01    0.120E+00
DAV:   8    -0.308004568169E+02    0.11253E-01   -0.13018E-01 11328   0.406E+00    0.555E-01
DAV:   9    -0.307995299943E+02    0.92682E-03   -0.16851E-02 10240   0.191E+00    0.131E-01
DAV:  10    -0.307997070349E+02   -0.17704E-03   -0.25656E-03 10128   0.701E-01    0.153E-01
DAV:  11    -0.307995409591E+02    0.16608E-03   -0.83577E-04 10080   0.469E-01    0.327E-02
DAV:  12    -0.307995396317E+02    0.13274E-05   -0.46002E-05  9984   0.599E-02    0.206E-02
DAV:  13    -0.307995371214E+02    0.25103E-05   -0.17702E-05 11760   0.490E-02    0.857E-03
DAV:  14    -0.307995365808E+02    0.54054E-06   -0.35733E-06  9968   0.192E-02    0.315E-03
DAV:  15    -0.307995365144E+02    0.66451E-07   -0.36815E-07 10128   0.966E-03    0.769E-04
DAV:  16    -0.307995364740E+02    0.40374E-07   -0.43527E-08  9216   0.189E-03    0.537E-04
DAV:  17    -0.307995364721E+02    0.19081E-08   -0.78224E-09  5376   0.154E-03
   2 F= -.30799536E+02 E0= -.30799668E+02  d E =-.760905E+00  mag=    -0.0000
       N       E                     dE             d eps       ncg     rms          rms(c)
DAV:   1    -0.628796362205E+02   -0.32080E+02   -0.28214E+02  9776   0.208E+02    0.606E+01
DAV:   2    -0.109193222075E+03   -0.46314E+02   -0.56674E+02  9808   0.300E+02    0.572E+01
DAV:   3    -0.367093918678E+02    0.72484E+02   -0.19531E+02 10240   0.138E+02    0.169E+01
DAV:   4    -0.366319938230E+02    0.77398E-01   -0.22708E+00  9696   0.104E+01    0.166E+01
DAV:   5    -0.355925456225E+02    0.10394E+01   -0.23701E-01 11104   0.869E+00    0.148E+01
DAV:   6    -0.335490919136E+02    0.20435E+01   -0.11329E+00 10896   0.159E+01    0.103E+01
DAV:   7    -0.320011739069E+02    0.15479E+01   -0.92765E+00 11248   0.418E+01    0.118E+01
DAV:   8    -0.318556582181E+02    0.14552E+00   -0.10209E+00  9776   0.817E+00    0.985E+00
DAV:   9    -0.315027232305E+02    0.35293E+00   -0.30967E-01 12048   0.498E+00    0.637E+00
DAV:  10    -0.313881082889E+02    0.11461E+00   -0.66650E-02 11168   0.215E+00    0.496E+00
DAV:  11    -0.312267031598E+02    0.16141E+00   -0.15221E-01 10048   0.366E+00    0.270E+00
DAV:  12    -0.311759382629E+02    0.50765E-01   -0.68049E-02 10800   0.261E+00    0.120E+00
DAV:  13    -0.311656788212E+02    0.10259E-01   -0.29337E-02 10464   0.181E+00    0.346E-01
DAV:  14    -0.311650124947E+02    0.66633E-03   -0.35242E-03 11872   0.588E-01    0.112E-01
DAV:  15    -0.311652202842E+02   -0.20779E-03   -0.85262E-04 11808   0.308E-01    0.176E-01
DAV:  16    -0.311651626114E+02    0.57673E-04   -0.58701E-04 10064   0.218E-01    0.141E-01
DAV:  17    -0.311650447600E+02    0.11785E-03   -0.14459E-04 10352   0.192E-01    0.755E-02
DAV:  18    -0.311650117423E+02    0.33018E-04   -0.40979E-05 10048   0.550E-02    0.668E-02
DAV:  19    -0.311649770620E+02    0.34680E-04   -0.41011E-05 12528   0.108E-01    0.246E-02
DAV:  20    -0.311649713723E+02    0.56897E-05   -0.14014E-05 12704   0.373E-02    0.884E-03
DAV:  21    -0.311649706498E+02    0.72254E-06   -0.20912E-06 10544   0.122E-02    0.540E-03
DAV:  22    -0.311649705399E+02    0.10981E-06   -0.40937E-07 10544   0.615E-03    0.406E-03
DAV:  23    -0.311649703865E+02    0.15347E-06   -0.85665E-08  9728   0.412E-03    0.220E-03
DAV:  24    -0.311649703401E+02    0.46368E-07   -0.94953E-08 11232   0.372E-03    0.505E-04
DAV:  25    -0.311649703168E+02    0.23276E-07   -0.14318E-08  5264   0.112E-03    0.219E-04
DAV:  26    -0.311649703007E+02    0.16093E-07   -0.38511E-09  4736   0.561E-04    0.834E-05
DAV:  27    -0.311649702989E+02    0.18044E-08   -0.93909E-10  4640   0.411E-04
   3 F= -.31164970E+02 E0= -.31165068E+02  d E =-.112634E+01  mag=    -0.0000
       N       E                     dE             d eps       ncg     rms          rms(c)
DAV:   1    -0.314526307474E+02   -0.28766E+00   -0.39700E+01 10384   0.188E+02    0.127E+01
DAV:   2    -0.353117632217E+02   -0.38591E+01   -0.35197E+01 10320   0.654E+01    0.172E+01
DAV:   3    -0.314652632476E+02    0.38465E+01   -0.11479E+01  9904   0.423E+01    0.237E+00
DAV:   4    -0.314119308324E+02    0.53332E-01   -0.36559E-01 10704   0.404E+00    0.119E+00
DAV:   5    -0.314285952455E+02   -0.16664E-01   -0.15427E-01 11056   0.684E+00    0.203E+00
DAV:   6    -0.313986392490E+02    0.29956E-01   -0.77789E-02 10496   0.569E+00    0.184E-01
DAV:   7    -0.313988582063E+02   -0.21896E-03   -0.77254E-03 10384   0.728E-01    0.114E-01
DAV:   8    -0.313987901002E+02    0.68106E-04   -0.48117E-04 11408   0.319E-01    0.246E-02
DAV:   9    -0.313987860571E+02    0.40431E-05   -0.44693E-05 10624   0.976E-02    0.109E-02
DAV:  10    -0.313987846247E+02    0.14324E-05   -0.57243E-06 10400   0.306E-02    0.294E-03
DAV:  11    -0.313987843510E+02    0.27368E-06   -0.64070E-07 10032   0.942E-03    0.134E-03
DAV:  12    -0.313987842847E+02    0.66333E-07   -0.66794E-08  9824   0.454E-03    0.237E-04
DAV:  13    -0.313987842472E+02    0.37469E-07   -0.87671E-09  5552   0.993E-04    0.600E-05
DAV:  14    -0.313987842501E+02   -0.28722E-08   -0.16028E-09  5376   0.336E-04
   4 F= -.31398784E+02 E0= -.31399023E+02  d E =-.233814E+00  mag=     0.0000
       N       E                     dE             d eps       ncg     rms          rms(c)
DAV:   1    -0.315716857234E+02   -0.17290E+00   -0.44447E+01 10400   0.203E+02    0.134E+01
DAV:   2    -0.354775227404E+02   -0.39058E+01   -0.38299E+01 10288   0.688E+01    0.172E+01
DAV:   3    -0.315596294674E+02    0.39179E+01   -0.11961E+01  9872   0.440E+01    0.259E+00
DAV:   4    -0.315089972477E+02    0.50632E-01   -0.43468E-01 11520   0.652E+00    0.182E+00
DAV:   5    -0.315160409023E+02   -0.70437E-02   -0.26437E-01 10688   0.936E+00    0.212E+00
DAV:   6    -0.314813112875E+02    0.34730E-01   -0.81454E-02 10384   0.573E+00    0.193E-01
DAV:   7    -0.314816229633E+02   -0.31168E-03   -0.89652E-03 10464   0.818E-01    0.996E-02
DAV:   8    -0.314815955212E+02    0.27442E-04   -0.57470E-04 10016   0.315E-01    0.370E-02
DAV:   9    -0.314815874062E+02    0.81150E-05   -0.59233E-05 11344   0.809E-02    0.138E-02
DAV:  10    -0.314815848425E+02    0.25637E-05   -0.59689E-06 11792   0.376E-02    0.166E-03
DAV:  11    -0.314815848008E+02    0.41624E-07   -0.86870E-07  9936   0.123E-02    0.125E-03
DAV:  12    -0.314815846703E+02    0.13058E-06   -0.10931E-07 10256   0.488E-03    0.542E-04
DAV:  13    -0.314815846558E+02    0.14505E-07   -0.13566E-08  5472   0.220E-03    0.114E-04
DAV:  14    -0.314815846531E+02    0.26321E-08   -0.21494E-09  5440   0.426E-04
   5 F= -.31481585E+02 E0= -.31481155E+02  d E =-.316614E+00  mag=     0.0000
       N       E                     dE             d eps       ncg     rms          rms(c)
DAV:   1    -0.295348303129E+02    0.19468E+01   -0.70265E+01 10976   0.270E+02    0.104E+01
DAV:   2    -0.337335510843E+02   -0.41987E+01   -0.47361E+01 10064   0.644E+01    0.145E+01
DAV:   3    -0.318824753557E+02    0.18511E+01   -0.10994E+01  9920   0.377E+01    0.590E+00
DAV:   4    -0.316842438990E+02    0.19823E+00   -0.11407E+00 10272   0.196E+01    0.342E+00
DAV:   5    -0.315808158084E+02    0.10343E+00   -0.29389E-01 10288   0.758E+00    0.109E+00
DAV:   6    -0.315682009530E+02    0.12615E-01   -0.48082E-02 12752   0.313E+00    0.285E-01
DAV:   7    -0.315679923491E+02    0.20860E-03   -0.11273E-02 10544   0.136E+00    0.222E-01
DAV:   8    -0.315676770924E+02    0.31526E-03   -0.19885E-03 10192   0.678E-01    0.534E-02
DAV:   9    -0.315676673178E+02    0.97745E-05   -0.13596E-04 10464   0.153E-01    0.121E-02
DAV:  10    -0.315676677207E+02   -0.40288E-06   -0.13584E-05 12720   0.464E-02    0.592E-03
DAV:  11    -0.315676674459E+02    0.27485E-06   -0.24426E-06  9808   0.214E-02    0.127E-03
DAV:  12    -0.315676674992E+02   -0.53304E-07   -0.11884E-07 10096   0.370E-03    0.198E-04
DAV:  13    -0.315676675122E+02   -0.13086E-07   -0.97739E-09  5744   0.115E-03    0.246E-04
DAV:  14    -0.315676675157E+02   -0.34615E-08   -0.25517E-09  5408   0.689E-04
   6 F= -.31567668E+02 E0= -.31567758E+02  d E =-.860829E-01  mag=     0.0000
       N       E                     dE             d eps       ncg     rms          rms(c)
DAV:   1    -0.312776288609E+02    0.29004E+00   -0.89852E+00 10544   0.103E+02    0.396E+00
DAV:   2    -0.318795883750E+02   -0.60196E+00   -0.64765E+00 10480   0.237E+01    0.514E+00
DAV:   3    -0.315946800555E+02    0.28491E+00   -0.11171E+00  9824   0.131E+01    0.139E+00
DAV:   4    -0.315888562949E+02    0.58238E-02   -0.84674E-02 11840   0.512E+00    0.125E+00
DAV:   5    -0.315773006785E+02    0.11556E-01   -0.44613E-02 10304   0.377E+00    0.468E-01
DAV:   6    -0.315750912100E+02    0.22095E-02   -0.76367E-03 13216   0.127E+00    0.800E-02
DAV:   7    -0.315750907565E+02    0.45349E-06   -0.12277E-03 10096   0.335E-01    0.596E-02
DAV:   8    -0.315750748055E+02    0.15951E-04   -0.13224E-04 10160   0.156E-01    0.151E-02
DAV:   9    -0.315750760953E+02   -0.12898E-05   -0.12683E-05 10384   0.551E-02    0.657E-03
DAV:  10    -0.315750759522E+02    0.14310E-06   -0.12122E-06 11024   0.197E-02    0.136E-03
DAV:  11    -0.315750760229E+02   -0.70617E-07   -0.13795E-07 12224   0.385E-03    0.218E-04
DAV:  12    -0.315750760326E+02   -0.97170E-08   -0.83299E-09  5456   0.115E-03
   7 F= -.31575076E+02 E0= -.31575224E+02  d E =-.934914E-01  mag=     0.0000
       N       E                     dE             d eps       ncg     rms          rms(c)
DAV:   1    -0.318282793800E+02   -0.25320E+00   -0.25853E+01 10544   0.157E+02    0.115E+01
DAV:   2    -0.346630889652E+02   -0.28348E+01   -0.26662E+01 10816   0.602E+01    0.153E+01
DAV:   3    -0.316275238648E+02    0.30356E+01   -0.91258E+00  9792   0.380E+01    0.199E+00
DAV:   4    -0.316164750149E+02    0.11049E-01   -0.31336E-01 11344   0.668E+00    0.179E+00
DAV:   5    -0.316026949045E+02    0.13780E-01   -0.16483E-01 10720   0.706E+00    0.134E+00
DAV:   6    -0.315885105815E+02    0.14184E-01   -0.42509E-02 10560   0.387E+00    0.173E-01
DAV:   7    -0.315885708197E+02   -0.60238E-04   -0.49975E-03 10176   0.635E-01    0.798E-02
DAV:   8    -0.315885245415E+02    0.46278E-04   -0.40460E-04  9792   0.208E-01    0.369E-02
DAV:   9    -0.315885145989E+02    0.99426E-05   -0.46090E-05 11328   0.774E-02    0.882E-03
DAV:  10    -0.315885132714E+02    0.13275E-05   -0.39512E-06 10704   0.192E-02    0.166E-03
DAV:  11    -0.315885132527E+02    0.18736E-07   -0.60279E-07 10096   0.846E-03    0.113E-03
DAV:  12    -0.315885131449E+02    0.10777E-06   -0.81602E-08  9824   0.444E-03    0.638E-04
DAV:  13    -0.315885131339E+02    0.11058E-07   -0.15997E-08  5456   0.217E-03    0.877E-05
DAV:  14    -0.315885131282E+02    0.56098E-08   -0.17574E-09  5136   0.366E-04
   8 F= -.31588513E+02 E0= -.31588205E+02  d E =-.134371E-01  mag=     0.0000
       N       E                     dE             d eps       ncg     rms          rms(c)
DAV:   1    -0.315998826431E+02   -0.11370E-01   -0.14642E+00 10496   0.370E+01    0.260E+00
DAV:   2    -0.317457285589E+02   -0.14585E+00   -0.15646E+00 10192   0.139E+01    0.369E+00
DAV:   3    -0.315932843175E+02    0.15244E+00   -0.49026E-01  9872   0.855E+00    0.604E-01
DAV:   4    -0.315910622633E+02    0.22221E-02   -0.14677E-02 11104   0.150E+00    0.368E-01
DAV:   5    -0.315907714702E+02    0.29079E-03   -0.86917E-03 10640   0.208E+00    0.336E-01
DAV:   6    -0.315898714169E+02    0.90005E-03   -0.26292E-03 10464   0.945E-01    0.308E-02
DAV:   7    -0.315898841131E+02   -0.12696E-04   -0.25719E-04 10048   0.141E-01    0.192E-02
DAV:   8    -0.315898836137E+02    0.49946E-06   -0.17207E-05 10976   0.512E-02    0.903E-03
DAV:   9    -0.315898831815E+02    0.43220E-06   -0.37612E-06 10624   0.240E-02    0.257E-03
DAV:  10    -0.315898833633E+02   -0.18179E-06   -0.27856E-07 10688   0.686E-03    0.352E-04
DAV:  11    -0.315898833935E+02   -0.30292E-07   -0.15867E-08  6416   0.154E-03    0.242E-04
DAV:  12    -0.315898834029E+02   -0.93041E-08   -0.34763E-09  5216   0.809E-04
   9 F= -.31589883E+02 E0= -.31589626E+02  d E =-.148074E-01  mag=     0.0000
       N       E                     dE             d eps       ncg     rms          rms(c)
DAV:   1    -0.315590783789E+02    0.30805E-01   -0.18190E+00 11024   0.388E+01    0.178E+00
DAV:   2    -0.316360087943E+02   -0.76930E-01   -0.98531E-01 10272   0.951E+00    0.184E+00
DAV:   3    -0.316012280070E+02    0.34781E-01   -0.14012E-01  9936   0.464E+00    0.767E-01
DAV:   4    -0.315968739487E+02    0.43541E-02   -0.30522E-02 12016   0.303E+00    0.713E-01
DAV:   5    -0.315935858267E+02    0.32881E-02   -0.20834E-02 10464   0.292E+00    0.250E-01
DAV:   6    -0.315930907505E+02    0.49508E-03   -0.25054E-03 10496   0.783E-01    0.330E-02
DAV:   7    -0.315930932326E+02   -0.24820E-05   -0.33152E-04 10032   0.170E-01    0.272E-02
DAV:   8    -0.315930891356E+02    0.40970E-05   -0.34106E-05 10112   0.685E-02    0.897E-03
DAV:   9    -0.315930902688E+02   -0.11333E-05   -0.26667E-06 11760   0.232E-02    0.239E-03
DAV:  10    -0.315930903336E+02   -0.64792E-07   -0.33269E-07 12144   0.940E-03    0.711E-04
DAV:  11    -0.315930903636E+02   -0.29999E-07   -0.30932E-08  8112   0.252E-03    0.122E-04
DAV:  12    -0.315930903652E+02   -0.16480E-08   -0.29758E-09  5152   0.666E-04
  10 F= -.31593090E+02 E0= -.31592910E+02  d E =-.320696E-02  mag=     0.0000
       N       E                     dE             d eps       ncg     rms          rms(c)
DAV:   1    -0.315923558610E+02    0.73450E-03   -0.40677E-02 11008   0.586E+00    0.267E-01
DAV:   2    -0.315940888763E+02   -0.17330E-02   -0.22070E-02 10272   0.143E+00    0.275E-01
DAV:   3    -0.315933113240E+02    0.77755E-03   -0.31653E-03  9936   0.707E-01    0.115E-01
DAV:   4    -0.315932536375E+02    0.57687E-04   -0.80943E-04 11872   0.530E-01    0.128E-01
DAV:   5    -0.315931357227E+02    0.11791E-03   -0.55904E-04 10400   0.477E-01    0.277E-02
DAV:   6    -0.315931305719E+02    0.51508E-05   -0.51019E-05 10656   0.991E-02    0.529E-03
DAV:   7    -0.315931305072E+02    0.64743E-07   -0.66376E-06 10208   0.249E-02    0.429E-03
DAV:   8    -0.315931304370E+02    0.70222E-07   -0.93603E-07  9984   0.116E-02    0.139E-03
DAV:   9    -0.315931304976E+02   -0.60612E-07   -0.72483E-08  9216   0.432E-03    0.419E-04
DAV:  10    -0.315931305143E+02   -0.16749E-07   -0.82916E-09  5232   0.160E-03    0.120E-04
DAV:  11    -0.315931305195E+02   -0.51768E-08   -0.27124E-09  4736   0.606E-04
  11 F= -.31593131E+02 E0= -.31592961E+02  d E =-.324712E-02  mag=     0.0000
       N       E                     dE             d eps       ncg     rms          rms(c)
DAV:   1    -0.315923010711E+02    0.82944E-03   -0.17309E-01 10496   0.129E+01    0.775E-01
DAV:   2    -0.316064446043E+02   -0.14144E-01   -0.15089E-01 10144   0.419E+00    0.105E+00
DAV:   3    -0.315938737229E+02    0.12571E-01   -0.42050E-02  9888   0.253E+00    0.202E-01
DAV:   4    -0.315934950677E+02    0.37866E-03   -0.14901E-03 11536   0.496E-01    0.107E-01
DAV:   5    -0.315935445489E+02   -0.49481E-04   -0.12752E-03 10704   0.732E-01    0.138E-01
DAV:   6    -0.315933932853E+02    0.15126E-03   -0.42541E-04 10320   0.430E-01    0.103E-02
DAV:   7    -0.315933949127E+02   -0.16274E-05   -0.37384E-05 10544   0.512E-02    0.731E-03
DAV:   8    -0.315933946968E+02    0.21588E-06   -0.22765E-06 10400   0.231E-02    0.269E-03
DAV:   9    -0.315933945422E+02    0.15455E-06   -0.26630E-07 11536   0.655E-03    0.104E-03
DAV:  10    -0.315933944783E+02    0.63877E-07   -0.28893E-08  6176   0.330E-03    0.136E-04
DAV:  11    -0.315933944656E+02    0.12789E-07   -0.66789E-09  4960   0.704E-04    0.513E-05
DAV:  12    -0.315933944657E+02   -0.17462E-09   -0.11038E-09  4880   0.249E-04
  12 F= -.31593394E+02 E0= -.31593258E+02  d E =-.263946E-03  mag=    -0.0000
       N       E                     dE             d eps       ncg     rms          rms(c)
DAV:   1    -0.315933944409E+02    0.24616E-07   -0.31355E-06 10448   0.547E-02    0.328E-03
DAV:   2    -0.315933947962E+02   -0.35527E-06   -0.27214E-06 10128   0.179E-02    0.445E-03
DAV:   3    -0.315933945123E+02    0.28386E-06   -0.75044E-07  9936   0.107E-02    0.869E-04
DAV:   4    -0.315933944922E+02    0.20167E-07   -0.23957E-08  6624   0.218E-03    0.473E-04
DAV:   5    -0.315933944887E+02    0.34634E-08   -0.25825E-08  4752   0.333E-03
  13 F= -.31593394E+02 E0= -.31593258E+02  d E =-.263969E-03  mag=     0.0000
       N       E                     dE             d eps       ncg     rms          rms(c)
DAV:   1    -0.315941084951E+02   -0.71400E-03   -0.66131E-02 10384   0.751E+00    0.557E-01
DAV:   2    -0.316006120987E+02   -0.65036E-02   -0.69155E-02 10144   0.295E+00    0.780E-01
DAV:   3    -0.315936453366E+02    0.69668E-02   -0.22172E-02  9824   0.181E+00    0.131E-01
DAV:   4    -0.315935128191E+02    0.13252E-03   -0.79131E-04 11568   0.366E-01    0.789E-02
DAV:   5    -0.315935098501E+02    0.29689E-05   -0.51665E-04 10576   0.465E-01    0.764E-02
DAV:   6    -0.315934656760E+02    0.44174E-04   -0.13865E-04 10256   0.242E-01    0.699E-03
DAV:   7    -0.315934662931E+02   -0.61714E-06   -0.12352E-05 10768   0.293E-02    0.483E-03
DAV:   8    -0.315934662529E+02    0.40243E-07   -0.80359E-07 11360   0.130E-02    0.190E-03
DAV:   9    -0.315934664190E+02   -0.16608E-06   -0.81287E-08  9464   0.288E-03    0.295E-04
DAV:  10    -0.315934664401E+02   -0.21158E-07   -0.72238E-09  5312   0.131E-03    0.102E-04
DAV:  11    -0.315934664588E+02   -0.18697E-07   -0.21246E-09  4896   0.407E-04    0.373E-05
DAV:  12    -0.315934664601E+02   -0.12587E-08   -0.45044E-10  4784   0.224E-04
  14 F= -.31593466E+02 E0= -.31593326E+02  d E =-.719714E-04  mag=    -0.0000
       N       E                     dE             d eps       ncg     rms          rms(c)
DAV:   1    -0.315934666372E+02   -0.17842E-06   -0.19645E-05 10384   0.130E-01    0.963E-03
DAV:   2    -0.315934688784E+02   -0.22411E-05   -0.20526E-05 10144   0.511E-02    0.135E-02
DAV:   3    -0.315934666128E+02    0.22655E-05   -0.66166E-06  9872   0.313E-02    0.224E-03
DAV:   4    -0.315934665427E+02    0.70127E-07   -0.24939E-07 12032   0.685E-03    0.156E-03
DAV:   5    -0.315934665249E+02    0.17777E-07   -0.15777E-07 10432   0.844E-03    0.116E-03
DAV:   6    -0.315934665039E+02    0.20989E-07   -0.32421E-08  5440   0.371E-03    0.114E-04
DAV:   7    -0.315934664994E+02    0.45529E-08   -0.41354E-09  4560   0.520E-04
  15 F= -.31593466E+02 E0= -.31593326E+02  d E =-.720107E-04  mag=    -0.0000
       N       E                     dE             d eps       ncg     rms          rms(c)
DAV:   1    -0.315934617964E+02    0.47075E-05   -0.21148E-02 10992   0.409E+00    0.267E-01
DAV:   2    -0.315949020865E+02   -0.14403E-02   -0.16542E-02 10080   0.142E+00    0.342E-01
DAV:   3    -0.315935797998E+02    0.13223E-02   -0.43806E-03  9824   0.812E-01    0.807E-02
DAV:   4    -0.315935046674E+02    0.75132E-04   -0.23100E-04 11808   0.204E-01    0.374E-02
DAV:   5    -0.315935131719E+02   -0.85045E-05   -0.17660E-04 10608   0.278E-01    0.489E-02
DAV:   6    -0.315934948072E+02    0.18365E-04   -0.55050E-05 10288   0.154E-01    0.404E-03
DAV:   7    -0.315934949152E+02   -0.10798E-06   -0.42512E-06 10448   0.191E-02    0.297E-03
DAV:   8    -0.315934948451E+02    0.70115E-07   -0.31718E-07 10224   0.879E-03    0.842E-04
DAV:   9    -0.315934947858E+02    0.59283E-07   -0.36309E-08  8368   0.167E-03    0.269E-04
DAV:  10    -0.315934947694E+02    0.16444E-07   -0.29570E-09  5040   0.965E-04    0.804E-05
DAV:  11    -0.315934947638E+02    0.56134E-08   -0.10572E-09  4800   0.400E-04
  16 F= -.31593495E+02 E0= -.31593341E+02  d E =-.282644E-04  mag=     0.0000
       N       E                     dE             d eps       ncg     rms          rms(c)
DAV:   1    -0.315934945778E+02    0.19162E-06   -0.26862E-04 10992   0.461E-01    0.300E-02
DAV:   2    -0.315935135702E+02   -0.18992E-04   -0.20990E-04 10112   0.160E-01    0.385E-02
DAV:   3    -0.315934963561E+02    0.17214E-04   -0.55487E-05  9840   0.913E-02    0.910E-03
DAV:   4    -0.315934952662E+02    0.10898E-05   -0.28739E-06 11616   0.219E-02    0.379E-03
DAV:   5    -0.315934953978E+02   -0.13155E-06   -0.21578E-06 10672   0.306E-02    0.576E-03
DAV:   6    -0.315934951295E+02    0.26828E-06   -0.75685E-07 10272   0.186E-02    0.457E-04
DAV:   7    -0.315934951200E+02    0.95079E-08   -0.56432E-08  8656   0.217E-03
  17 F= -.31593495E+02 E0= -.31593340E+02  d E =-.286206E-04  mag=    -0.0000
       N       E                     dE             d eps       ncg     rms          rms(c)
DAV:   1    -0.315934682323E+02    0.26897E-04   -0.17430E-03 10880   0.112E+00    0.483E-02
DAV:   2    -0.315935147030E+02   -0.46471E-04   -0.73726E-04  9568   0.249E-01    0.332E-02
DAV:   3    -0.315935149290E+02   -0.22602E-06   -0.77719E-05 10480   0.166E-01    0.381E-02
DAV:   4    -0.315935053388E+02    0.95903E-05   -0.59506E-05 10560   0.162E-01    0.222E-02
DAV:   5    -0.315935007611E+02    0.45777E-05   -0.19422E-05 10704   0.728E-02    0.340E-03
DAV:   6    -0.315935007972E+02   -0.36061E-07   -0.16731E-06  9984   0.145E-02    0.120E-03
DAV:   7    -0.315935007975E+02   -0.27103E-09   -0.90399E-08 11792   0.355E-03
  18 F= -.31593501E+02 E0= -.31593344E+02  d E =-.567746E-05  mag=     0.0000
       N       E                     dE             d eps       ncg     rms          rms(c)
DAV:   1    -0.315934813402E+02    0.19457E-04   -0.10155E-03 10880   0.857E-01    0.369E-02
DAV:   2    -0.315935083079E+02   -0.26968E-04   -0.42961E-04  9568   0.191E-01    0.253E-02
DAV:   3    -0.315935085672E+02   -0.25930E-06   -0.45567E-05 10480   0.127E-01    0.292E-02
DAV:   4    -0.315935029126E+02    0.56546E-05   -0.34733E-05 10576   0.124E-01    0.169E-02
DAV:   5    -0.315935002503E+02    0.26623E-05   -0.11266E-05 10768   0.554E-02    0.262E-03
DAV:   6    -0.315935002769E+02   -0.26585E-07   -0.97087E-07  9952   0.111E-02    0.923E-04
DAV:   7    -0.315935002775E+02   -0.63119E-09   -0.51723E-08  9248   0.273E-03
  19 F= -.31593500E+02 E0= -.31593343E+02  d E =-.515755E-05  mag=    -0.0000
