   8   8   0   0
  0.1166663E+02  0.6875682E-09  0.6875682E-09  0.6875682E-09  0.5000000E-15
  1.000000000000000E-004
  CAR 
 unknown system                          
     25.16339238    -58.51091150  301      8.88791109      1.00000000
    -58.511  0.0000E+00  0.0000E+00  0.0000E+00  0.0000E+00
    -58.232  0.0000E+00  0.0000E+00  0.0000E+00  0.0000E+00
    -57.953  0.0000E+00  0.0000E+00  0.0000E+00  0.0000E+00
    -57.674  0.0000E+00  0.0000E+00  0.0000E+00  0.0000E+00
    -57.395  0.0000E+00  0.0000E+00  0.0000E+00  0.0000E+00
    -57.116  0.0000E+00  0.0000E+00  0.0000E+00  0.0000E+00
    -56.837  0.0000E+00  0.0000E+00  0.0000E+00  0.0000E+00
    -56.559  0.0000E+00  0.0000E+00  0.0000E+00  0.0000E+00
    -56.280  0.0000E+00  0.0000E+00  0.0000E+00  0.0000E+00
    -56.001  0.0000E+00  0.0000E+00  0.0000E+00  0.0000E+00
    -55.722  0.0000E+00  0.0000E+00  0.0000E+00  0.0000E+00
    -55.443  0.0000E+00  0.0000E+00  0.0000E+00  0.0000E+00
    -55.164  0.0000E+00  0.0000E+00  0.0000E+00  0.0000E+00
    -54.885  0.0000E+00  0.0000E+00  0.0000E+00  0.0000E+00
    -54.606  0.1737E+03  0.1737E+03  0.1042E+02  0.1042E+02
    -54.327  0.0000E+00  0.0000E+00  0.1200E+02  0.1200E+02
    -54.048  0.0000E+00  0.0000E+00  0.1400E+02  0.1400E+02
    -53.769  0.0000E+00  0.0000E+00  0.1500E+02  0.1500E+02
    -53.490  0.0000E+00  0.0000E+00  0.1500E+02  0.1500E+02
    -53.212  0.0000E+00  0.0000E+00  0.1500E+02  0.1500E+02
    -52.933  0.0000E+00  0.0000E+00  0.1500E+02  0.1500E+02
    -52.654  0.0000E+00  0.0000E+00  0.1500E+02  0.1500E+02
    -52.375  0.0000E+00  0.0000E+00  0.1500E+02  0.1500E+02
    -52.096  0.0000E+00  0.0000E+00  0.1500E+02  0.1500E+02
    -51.817  0.0000E+00  0.0000E+00  0.1500E+02  0.1500E+02
    -51.538  0.0000E+00  0.0000E+00  0.1500E+02  0.1500E+02
    -51.259  0.0000E+00  0.0000E+00  0.1500E+02  0.1500E+02
    -50.980  0.0000E+00  0.0000E+00  0.1500E+02  0.1500E+02
    -50.701  0.0000E+00  0.0000E+00  0.1500E+02  0.1500E+02
    -50.422  0.0000E+00  0.0000E+00  0.1500E+02  0.1500E+02
    -50.143  0.0000E+00  0.0000E+00  0.1500E+02  0.1500E+02
    -49.865  0.0000E+00  0.0000E+00  0.1500E+02  0.1500E+02
    -49.586  0.0000E+00  0.0000E+00  0.1500E+02  0.1500E+02
    -49.307  0.0000E+00  0.0000E+00  0.1500E+02  0.1500E+02
    -49.028  0.0000E+00  0.0000E+00  0.1500E+02  0.1500E+02
    -48.749  0.0000E+00  0.0000E+00  0.1500E+02  0.1500E+02
    -48.470  0.0000E+00  0.0000E+00  0.1500E+02  0.1500E+02
    -48.191  0.0000E+00  0.0000E+00  0.1500E+02  0.1500E+02
    -47.912  0.0000E+00  0.0000E+00  0.1500E+02  0.1500E+02
    -47.633  0.0000E+00  0.0000E+00  0.1500E+02  0.1500E+02
    -47.354  0.0000E+00  0.0000E+00  0.1500E+02  0.1500E+02
    -47.075  0.0000E+00  0.0000E+00  0.1500E+02  0.1500E+02
    -46.797  0.0000E+00  0.0000E+00  0.1500E+02  0.1500E+02
    -46.518  0.0000E+00  0.0000E+00  0.1500E+02  0.1500E+02
    -46.239  0.0000E+00  0.0000E+00  0.1500E+02  0.1500E+02
    -45.960  0.0000E+00  0.0000E+00  0.1500E+02  0.1500E+02
    -45.681  0.0000E+00  0.0000E+00  0.1500E+02  0.1500E+02
    -45.402  0.0000E+00  0.0000E+00  0.1500E+02  0.1500E+02
    -45.123  0.0000E+00  0.0000E+00  0.1500E+02  0.1500E+02
    -44.844  0.0000E+00  0.0000E+00  0.1500E+02  0.1500E+02
    -44.565  0.0000E+00  0.0000E+00  0.1500E+02  0.1500E+02
    -44.286  0.0000E+00  0.0000E+00  0.1500E+02  0.1500E+02
    -44.007  0.0000E+00  0.0000E+00  0.1500E+02  0.1500E+02
    -43.728  0.0000E+00  0.0000E+00  0.1500E+02  0.1500E+02
    -43.450  0.0000E+00  0.0000E+00  0.1500E+02  0.1500E+02
    -43.171  0.0000E+00  0.0000E+00  0.1500E+02  0.1500E+02
    -42.892  0.0000E+00  0.0000E+00  0.1500E+02  0.1500E+02
    -42.613  0.0000E+00  0.0000E+00  0.1500E+02  0.1500E+02
    -42.334  0.0000E+00  0.0000E+00  0.1500E+02  0.1500E+02
    -42.055  0.0000E+00  0.0000E+00  0.1500E+02  0.1500E+02
    -41.776  0.0000E+00  0.0000E+00  0.1500E+02  0.1500E+02
    -41.497  0.0000E+00  0.0000E+00  0.1500E+02  0.1500E+02
    -41.218  0.0000E+00  0.0000E+00  0.1500E+02  0.1500E+02
    -40.939  0.0000E+00  0.0000E+00  0.1500E+02  0.1500E+02
    -40.660  0.0000E+00  0.0000E+00  0.1500E+02  0.1500E+02
    -40.381  0.0000E+00  0.0000E+00  0.1500E+02  0.1500E+02
    -40.103  0.0000E+00  0.0000E+00  0.1500E+02  0.1500E+02
    -39.824  0.0000E+00  0.0000E+00  0.1500E+02  0.1500E+02
    -39.545  0.0000E+00  0.0000E+00  0.1500E+02  0.1500E+02
    -39.266  0.0000E+00  0.0000E+00  0.1500E+02  0.1500E+02
    -38.987  0.0000E+00  0.0000E+00  0.1500E+02  0.1500E+02
    -38.708  0.0000E+00  0.0000E+00  0.1500E+02  0.1500E+02
    -38.429  0.0000E+00  0.0000E+00  0.1500E+02  0.1500E+02
    -38.150  0.0000E+00  0.0000E+00  0.1500E+02  0.1500E+02
    -37.871  0.0000E+00  0.0000E+00  0.1500E+02  0.1500E+02
    -37.592  0.0000E+00  0.0000E+00  0.1500E+02  0.1500E+02
    -37.313  0.0000E+00  0.0000E+00  0.1500E+02  0.1500E+02
    -37.035  0.0000E+00  0.0000E+00  0.1500E+02  0.1500E+02
    -36.756  0.0000E+00  0.0000E+00  0.1500E+02  0.1500E+02
    -36.477  0.0000E+00  0.0000E+00  0.1500E+02  0.1500E+02
    -36.198  0.0000E+00  0.0000E+00  0.1500E+02  0.1500E+02
    -35.919  0.0000E+00  0.0000E+00  0.1500E+02  0.1500E+02
    -35.640  0.0000E+00  0.0000E+00  0.1500E+02  0.1500E+02
    -35.361  0.0000E+00  0.0000E+00  0.1500E+02  0.1500E+02
    -35.082  0.0000E+00  0.0000E+00  0.1500E+02  0.1500E+02
    -34.803  0.0000E+00  0.0000E+00  0.1500E+02  0.1500E+02
    -34.524  0.0000E+00  0.0000E+00  0.1500E+02  0.1500E+02
    -34.245  0.0000E+00  0.0000E+00  0.1500E+02  0.1500E+02
    -33.966  0.0000E+00  0.0000E+00  0.1500E+02  0.1500E+02
    -33.688  0.0000E+00  0.0000E+00  0.1500E+02  0.1500E+02
    -33.409  0.0000E+00  0.0000E+00  0.1500E+02  0.1500E+02
    -33.130  0.0000E+00  0.0000E+00  0.1500E+02  0.1500E+02
    -32.851  0.0000E+00  0.0000E+00  0.1500E+02  0.1500E+02
    -32.572  0.0000E+00  0.0000E+00  0.1500E+02  0.1500E+02
    -32.293  0.0000E+00  0.0000E+00  0.1500E+02  0.1500E+02
    -32.014  0.0000E+00  0.0000E+00  0.1500E+02  0.1500E+02
    -31.735  0.0000E+00  0.0000E+00  0.1500E+02  0.1500E+02
    -31.456  0.0000E+00  0.0000E+00  0.1500E+02  0.1500E+02
    -31.177  0.0000E+00  0.0000E+00  0.1500E+02  0.1500E+02
    -30.898  0.0000E+00  0.0000E+00  0.1500E+02  0.1500E+02
    -30.619  0.0000E+00  0.0000E+00  0.1500E+02  0.1500E+02
    -30.341  0.0000E+00  0.0000E+00  0.1500E+02  0.1500E+02
    -30.062  0.0000E+00  0.0000E+00  0.1500E+02  0.1500E+02
    -29.783  0.0000E+00  0.0000E+00  0.1500E+02  0.1500E+02
    -29.504  0.0000E+00  0.0000E+00  0.1500E+02  0.1500E+02
    -29.225  0.0000E+00  0.0000E+00  0.1500E+02  0.1500E+02
    -28.946  0.0000E+00  0.0000E+00  0.1500E+02  0.1500E+02
    -28.667  0.0000E+00  0.0000E+00  0.1500E+02  0.1500E+02
    -28.388  0.0000E+00  0.0000E+00  0.1500E+02  0.1500E+02
    -28.109  0.0000E+00  0.0000E+00  0.1500E+02  0.1500E+02
    -27.830  0.0000E+00  0.0000E+00  0.1500E+02  0.1500E+02
    -27.551  0.0000E+00  0.0000E+00  0.1500E+02  0.1500E+02
    -27.273  0.0000E+00  0.0000E+00  0.1500E+02  0.1500E+02
    -26.994  0.0000E+00  0.0000E+00  0.1500E+02  0.1500E+02
    -26.715  0.0000E+00  0.0000E+00  0.1500E+02  0.1500E+02
    -26.436  0.0000E+00  0.0000E+00  0.1500E+02  0.1500E+02
    -26.157  0.0000E+00  0.0000E+00  0.1500E+02  0.1500E+02
    -25.878  0.0000E+00  0.0000E+00  0.1500E+02  0.1500E+02
    -25.599  0.0000E+00  0.0000E+00  0.1500E+02  0.1500E+02
    -25.320  0.0000E+00  0.0000E+00  0.1500E+02  0.1500E+02
    -25.041  0.0000E+00  0.0000E+00  0.1500E+02  0.1500E+02
    -24.762  0.0000E+00  0.0000E+00  0.1500E+02  0.1500E+02
    -24.483  0.0000E+00  0.0000E+00  0.1500E+02  0.1500E+02
    -24.204  0.0000E+00  0.0000E+00  0.1500E+02  0.1500E+02
    -23.926  0.0000E+00  0.0000E+00  0.1500E+02  0.1500E+02
    -23.647  0.0000E+00  0.0000E+00  0.1500E+02  0.1500E+02
    -23.368  0.0000E+00  0.0000E+00  0.1500E+02  0.1500E+02
    -23.089  0.0000E+00  0.0000E+00  0.1500E+02  0.1500E+02
    -22.810  0.0000E+00  0.0000E+00  0.1500E+02  0.1500E+02
    -22.531  0.0000E+00  0.0000E+00  0.1500E+02  0.1500E+02
    -22.252  0.0000E+00  0.0000E+00  0.1500E+02  0.1500E+02
    -21.973  0.0000E+00  0.0000E+00  0.1500E+02  0.1500E+02
    -21.694  0.0000E+00  0.0000E+00  0.1500E+02  0.1500E+02
    -21.415  0.0000E+00  0.0000E+00  0.1500E+02  0.1500E+02
    -21.136  0.0000E+00  0.0000E+00  0.1500E+02  0.1500E+02
    -20.857  0.0000E+00  0.0000E+00  0.1500E+02  0.1500E+02
    -20.579  0.0000E+00  0.0000E+00  0.1500E+02  0.1500E+02
    -20.300  0.0000E+00  0.0000E+00  0.1500E+02  0.1500E+02
    -20.021  0.0000E+00  0.0000E+00  0.1500E+02  0.1500E+02
    -19.742  0.0000E+00  0.0000E+00  0.1500E+02  0.1500E+02
    -19.463  0.0000E+00  0.0000E+00  0.1500E+02  0.1500E+02
    -19.184  0.0000E+00  0.0000E+00  0.1500E+02  0.1500E+02
    -18.905  0.0000E+00  0.0000E+00  0.1500E+02  0.1500E+02
    -18.626  0.0000E+00  0.0000E+00  0.1500E+02  0.1500E+02
    -18.347  0.0000E+00  0.0000E+00  0.1500E+02  0.1500E+02
    -18.068  0.0000E+00  0.0000E+00  0.1500E+02  0.1500E+02
    -17.789  0.0000E+00  0.0000E+00  0.1500E+02  0.1500E+02
    -17.511  0.0000E+00  0.0000E+00  0.1500E+02  0.1500E+02
    -17.232  0.0000E+00  0.0000E+00  0.1500E+02  0.1500E+02
    -16.953  0.0000E+00  0.0000E+00  0.1500E+02  0.1500E+02
    -16.674  0.0000E+00  0.0000E+00  0.1500E+02  0.1500E+02
    -16.395  0.0000E+00  0.0000E+00  0.1500E+02  0.1500E+02
    -16.116  0.0000E+00  0.0000E+00  0.1500E+02  0.1500E+02
    -15.837  0.0000E+00  0.0000E+00  0.1500E+02  0.1500E+02
    -15.558  0.0000E+00  0.0000E+00  0.1500E+02  0.1500E+02
    -15.279  0.0000E+00  0.0000E+00  0.1500E+02  0.1500E+02
    -15.000  0.0000E+00  0.0000E+00  0.1500E+02  0.1500E+02
    -14.721  0.0000E+00  0.0000E+00  0.1500E+02  0.1500E+02
    -14.442  0.0000E+00  0.0000E+00  0.1500E+02  0.1500E+02
    -14.164  0.0000E+00  0.0000E+00  0.1500E+02  0.1500E+02
    -13.885  0.0000E+00  0.0000E+00  0.1500E+02  0.1500E+02
    -13.606  0.0000E+00  0.0000E+00  0.1500E+02  0.1500E+02
    -13.327  0.0000E+00  0.0000E+00  0.1500E+02  0.1500E+02
    -13.048  0.0000E+00  0.0000E+00  0.1500E+02  0.1500E+02
    -12.769  0.0000E+00  0.0000E+00  0.1500E+02  0.1500E+02
    -12.490  0.0000E+00  0.0000E+00  0.1500E+02  0.1500E+02
    -12.211  0.0000E+00  0.0000E+00  0.1500E+02  0.1500E+02
    -11.932  0.0000E+00  0.0000E+00  0.1500E+02  0.1500E+02
    -11.653  0.0000E+00  0.0000E+00  0.1500E+02  0.1500E+02
    -11.374  0.0000E+00  0.0000E+00  0.1500E+02  0.1500E+02
    -11.095  0.0000E+00  0.0000E+00  0.1500E+02  0.1500E+02
    -10.817  0.0000E+00  0.0000E+00  0.1500E+02  0.1500E+02
    -10.538  0.0000E+00  0.0000E+00  0.1500E+02  0.1500E+02
    -10.259  0.0000E+00  0.0000E+00  0.1500E+02  0.1500E+02
     -9.980  0.0000E+00  0.0000E+00  0.1500E+02  0.1500E+02
     -9.701  0.0000E+00  0.0000E+00  0.1500E+02  0.1500E+02
     -9.422  0.0000E+00  0.0000E+00  0.1500E+02  0.1500E+02
     -9.143  0.0000E+00  0.0000E+00  0.1500E+02  0.1500E+02
     -8.864  0.0000E+00  0.0000E+00  0.1500E+02  0.1500E+02
     -8.585  0.0000E+00  0.0000E+00  0.1500E+02  0.1500E+02
     -8.306  0.0000E+00  0.0000E+00  0.1500E+02  0.1500E+02
     -8.027  0.0000E+00  0.0000E+00  0.1500E+02  0.1500E+02
     -7.749  0.0000E+00  0.0000E+00  0.1500E+02  0.1500E+02
     -7.470  0.0000E+00  0.0000E+00  0.1500E+02  0.1500E+02
     -7.191  0.0000E+00  0.0000E+00  0.1500E+02  0.1500E+02
     -6.912  0.0000E+00  0.0000E+00  0.1500E+02  0.1500E+02
     -6.633  0.0000E+00  0.0000E+00  0.1500E+02  0.1500E+02
     -6.354  0.0000E+00  0.0000E+00  0.1500E+02  0.1500E+02
     -6.075  0.0000E+00  0.0000E+00  0.1500E+02  0.1500E+02
     -5.796  0.0000E+00  0.0000E+00  0.1500E+02  0.1500E+02
     -5.517  0.0000E+00  0.0000E+00  0.1500E+02  0.1500E+02
     -5.238  0.0000E+00  0.0000E+00  0.1500E+02  0.1500E+02
     -4.959  0.0000E+00  0.0000E+00  0.1500E+02  0.1500E+02
     -4.680  0.0000E+00  0.0000E+00  0.1500E+02  0.1500E+02
     -4.402  0.0000E+00  0.0000E+00  0.1500E+02  0.1500E+02
     -4.123  0.0000E+00  0.0000E+00  0.1500E+02  0.1500E+02
     -3.844  0.0000E+00  0.0000E+00  0.1500E+02  0.1500E+02
     -3.565  0.0000E+00  0.0000E+00  0.1500E+02  0.1500E+02
     -3.286  0.0000E+00  0.0000E+00  0.1500E+02  0.1500E+02
     -3.007  0.0000E+00  0.0000E+00  0.1500E+02  0.1500E+02
     -2.728  0.0000E+00  0.0000E+00  0.1500E+02  0.1500E+02
     -2.449  0.0000E+00  0.0000E+00  0.1500E+02  0.1500E+02
     -2.170  0.0000E+00  0.0000E+00  0.1500E+02  0.1500E+02
     -1.891  0.0000E+00  0.0000E+00  0.1500E+02  0.1500E+02
     -1.612  0.8548E-01  0.8548E-01  0.1501E+02  0.1501E+02
     -1.333  0.2624E+00  0.2624E+00  0.1506E+02  0.1506E+02
     -1.055  0.3302E+00  0.3302E+00  0.1514E+02  0.1514E+02
     -0.776  0.3052E+00  0.3052E+00  0.1523E+02  0.1523E+02
     -0.497  0.3183E+00  0.3183E+00  0.1532E+02  0.1532E+02
     -0.218  0.3608E+00  0.3608E+00  0.1541E+02  0.1541E+02
      0.061  0.7163E+00  0.7163E+00  0.1556E+02  0.1556E+02
      0.340  0.5397E+00  0.5397E+00  0.1575E+02  0.1575E+02
      0.619  0.4326E+00  0.4326E+00  0.1588E+02  0.1588E+02
      0.898  0.4446E+00  0.4446E+00  0.1600E+02  0.1600E+02
      1.177  0.4840E+00  0.4840E+00  0.1613E+02  0.1613E+02
      1.456  0.6151E+00  0.6151E+00  0.1629E+02  0.1629E+02
      1.735  0.8349E+00  0.8349E+00  0.1649E+02  0.1649E+02
      2.014  0.8125E+00  0.8125E+00  0.1673E+02  0.1673E+02
      2.292  0.8844E+00  0.8844E+00  0.1697E+02  0.1697E+02
      2.571  0.9638E+00  0.9638E+00  0.1722E+02  0.1722E+02
      2.850  0.1005E+01  0.1005E+01  0.1752E+02  0.1752E+02
      3.129  0.1055E+01  0.1055E+01  0.1779E+02  0.1779E+02
      3.408  0.6764E+00  0.6764E+00  0.1799E+02  0.1799E+02
      3.687  0.1893E+01  0.1893E+01  0.1834E+02  0.1834E+02
      3.966  0.1002E+01  0.1002E+01  0.1875E+02  0.1875E+02
      4.245  0.1298E+01  0.1298E+01  0.1913E+02  0.1913E+02
      4.524  0.2128E+01  0.2128E+01  0.1959E+02  0.1959E+02
      4.803  0.2054E+01  0.2054E+01  0.2015E+02  0.2015E+02
      5.082  0.2730E+01  0.2730E+01  0.2078E+02  0.2078E+02
      5.360  0.5100E+01  0.5100E+01  0.2185E+02  0.2185E+02
      5.639  0.2939E+01  0.2939E+01  0.2325E+02  0.2325E+02
      5.918  0.5498E+01  0.5498E+01  0.2464E+02  0.2464E+02
      6.197  0.1400E+02  0.1400E+02  0.2667E+02  0.2667E+02
      6.476  0.5780E+01  0.5780E+01  0.2887E+02  0.2887E+02
      6.755  0.9149E+01  0.9149E+01  0.3058E+02  0.3058E+02
      7.034  0.7011E+01  0.7011E+01  0.3327E+02  0.3327E+02
      7.313  0.1192E+02  0.1192E+02  0.3615E+02  0.3615E+02
      7.592  0.4462E+01  0.4462E+01  0.3832E+02  0.3832E+02
      7.871  0.5518E+01  0.5518E+01  0.3939E+02  0.3939E+02
      8.150  0.9921E+01  0.9921E+01  0.4124E+02  0.4124E+02
      8.429  0.2466E+01  0.2466E+01  0.4313E+02  0.4313E+02
      8.707  0.3024E+01  0.3024E+01  0.4402E+02  0.4402E+02
      8.986  0.2228E+01  0.2228E+01  0.4475E+02  0.4475E+02
      9.265  0.1561E+01  0.1561E+01  0.4527E+02  0.4527E+02
      9.544  0.1261E+01  0.1261E+01  0.4563E+02  0.4563E+02
      9.823  0.1564E+01  0.1564E+01  0.4602E+02  0.4602E+02
     10.102  0.1416E+01  0.1416E+01  0.4644E+02  0.4644E+02
     10.381  0.1101E+01  0.1101E+01  0.4677E+02  0.4677E+02
     10.660  0.1118E+01  0.1118E+01  0.4710E+02  0.4710E+02
     10.939  0.8631E+00  0.8631E+00  0.4737E+02  0.4737E+02
     11.218  0.4890E+00  0.4890E+00  0.4756E+02  0.4756E+02
     11.497  0.6558E+00  0.6558E+00  0.4770E+02  0.4770E+02
     11.776  0.1051E+01  0.1051E+01  0.4795E+02  0.4795E+02
     12.054  0.1456E+01  0.1456E+01  0.4830E+02  0.4830E+02
     12.333  0.1655E+01  0.1655E+01  0.4877E+02  0.4877E+02
     12.612  0.1550E+01  0.1550E+01  0.4921E+02  0.4921E+02
     12.891  0.1755E+01  0.1755E+01  0.4970E+02  0.4970E+02
     13.170  0.1478E+01  0.1478E+01  0.5015E+02  0.5015E+02
     13.449  0.1178E+01  0.1178E+01  0.5051E+02  0.5051E+02
     13.728  0.1096E+01  0.1096E+01  0.5083E+02  0.5083E+02
     14.007  0.1086E+01  0.1086E+01  0.5112E+02  0.5112E+02
     14.286  0.1370E+01  0.1370E+01  0.5144E+02  0.5144E+02
     14.565  0.1512E+01  0.1512E+01  0.5183E+02  0.5183E+02
     14.844  0.1768E+01  0.1768E+01  0.5236E+02  0.5236E+02
     15.122  0.1971E+01  0.1971E+01  0.5290E+02  0.5290E+02
     15.401  0.1191E+01  0.1191E+01  0.5333E+02  0.5333E+02
     15.680  0.1087E+01  0.1087E+01  0.5366E+02  0.5366E+02
     15.959  0.1564E+01  0.1564E+01  0.5397E+02  0.5397E+02
     16.238  0.1281E+01  0.1281E+01  0.5440E+02  0.5440E+02
     16.517  0.1190E+01  0.1190E+01  0.5473E+02  0.5473E+02
     16.796  0.1507E+01  0.1507E+01  0.5511E+02  0.5511E+02
     17.075  0.1813E+01  0.1813E+01  0.5558E+02  0.5558E+02
     17.354  0.1742E+01  0.1742E+01  0.5605E+02  0.5605E+02
     17.633  0.1931E+01  0.1931E+01  0.5657E+02  0.5657E+02
     17.912  0.2037E+01  0.2037E+01  0.5708E+02  0.5708E+02
     18.191  0.1527E+01  0.1527E+01  0.5759E+02  0.5759E+02
     18.469  0.1576E+01  0.1576E+01  0.5804E+02  0.5804E+02
     18.748  0.1217E+01  0.1217E+01  0.5844E+02  0.5844E+02
     19.027  0.1039E+01  0.1039E+01  0.5875E+02  0.5875E+02
     19.306  0.9534E+00  0.9534E+00  0.5903E+02  0.5903E+02
     19.585  0.1013E+01  0.1013E+01  0.5932E+02  0.5932E+02
     19.864  0.5936E+00  0.5936E+00  0.5956E+02  0.5956E+02
     20.143  0.4066E+00  0.4066E+00  0.5971E+02  0.5971E+02
     20.422  0.3007E+00  0.3007E+00  0.5981E+02  0.5981E+02
     20.701  0.3349E+00  0.3349E+00  0.5990E+02  0.5990E+02
     20.980  0.1425E+00  0.1425E+00  0.5997E+02  0.5997E+02
     21.259  0.5315E-01  0.5315E-01  0.6000E+02  0.6000E+02
     21.538  0.0000E+00  0.0000E+00  0.6000E+02  0.6000E+02
     21.816  0.0000E+00  0.0000E+00  0.6000E+02  0.6000E+02
     22.095  0.0000E+00  0.0000E+00  0.6000E+02  0.6000E+02
     22.374  0.0000E+00  0.0000E+00  0.6000E+02  0.6000E+02
     22.653  0.0000E+00  0.0000E+00  0.6000E+02  0.6000E+02
     22.932  0.0000E+00  0.0000E+00  0.6000E+02  0.6000E+02
     23.211  0.0000E+00  0.0000E+00  0.6000E+02  0.6000E+02
     23.490  0.0000E+00  0.0000E+00  0.6000E+02  0.6000E+02
     23.769  0.0000E+00  0.0000E+00  0.6000E+02  0.6000E+02
     24.048  0.0000E+00  0.0000E+00  0.6000E+02  0.6000E+02
     24.327  0.0000E+00  0.0000E+00  0.6000E+02  0.6000E+02
     24.606  0.0000E+00  0.0000E+00  0.6000E+02  0.6000E+02
     24.884  0.0000E+00  0.0000E+00  0.6000E+02  0.6000E+02
     25.163  0.0000E+00  0.0000E+00  0.6000E+02  0.6000E+02
