       N       E                     dE             d eps       ncg     rms          rms(c)
DAV:   1     0.111373798795E+04    0.11137E+04   -0.51568E+04  5096   0.176E+03
DAV:   2     0.313931125692E+02   -0.10823E+04   -0.10388E+04  4348   0.571E+02
DAV:   3    -0.470637851030E+02   -0.78457E+02   -0.72811E+02  5036   0.172E+02
DAV:   4    -0.499774529696E+02   -0.29137E+01   -0.28853E+01  4836   0.309E+01
DAV:   5    -0.500484086478E+02   -0.70956E-01   -0.70937E-01  4872   0.470E+00    0.286E+01
DAV:   6    -0.592401905814E+02   -0.91918E+01   -0.12047E+02  4924   0.114E+02    0.346E+01
DAV:   7    -0.433666214690E+02    0.15874E+02   -0.44075E+01  4904   0.747E+01    0.427E+00
DAV:   8    -0.438254234623E+02   -0.45880E+00   -0.33390E+00  5200   0.183E+01    0.529E+00
DAV:   9    -0.437056689974E+02    0.11975E+00   -0.74671E-01  5168   0.156E+01    0.331E+00
DAV:  10    -0.436410465680E+02    0.64622E-01   -0.46319E-01  5152   0.685E+00    0.101E+00
DAV:  11    -0.436377992051E+02    0.32474E-02   -0.37637E-02  5000   0.195E+00    0.442E-01
DAV:  12    -0.436356818631E+02    0.21173E-02   -0.67994E-03  5736   0.795E-01    0.111E-01
DAV:  13    -0.436358004326E+02   -0.11857E-03   -0.10668E-03  4620   0.282E-01    0.520E-02
DAV:  14    -0.436358231654E+02   -0.22733E-04   -0.43402E-05  5156   0.616E-02    0.193E-02
DAV:  15    -0.436358267603E+02   -0.35949E-05   -0.85764E-06  5300   0.266E-02    0.575E-03
DAV:  16    -0.436358271093E+02   -0.34902E-06   -0.95902E-07  4728   0.797E-03    0.253E-03
DAV:  17    -0.436358270892E+02    0.20060E-07   -0.18918E-07  4652   0.347E-03    0.990E-04
DAV:  18    -0.436358270510E+02    0.38206E-07   -0.30409E-08  3484   0.195E-03    0.647E-04
DAV:  19    -0.436358270039E+02    0.47181E-07   -0.11286E-08  2604   0.991E-04    0.235E-04
DAV:  20    -0.436358270023E+02    0.15098E-08   -0.25585E-09  2440   0.434E-04
   1 F= -.43635827E+02 E0= -.43634464E+02  d E =-.436358E+02  mag=    -0.0000
       N       E                     dE             d eps       ncg     rms          rms(c)
DAV:   1    -0.127018619455E+03   -0.83383E+02   -0.91005E+02  4420   0.356E+02    0.765E+01
DAV:   2    -0.100087067810E+03    0.26932E+02   -0.71017E+02  4896   0.231E+02    0.636E+01
DAV:   3    -0.516005170689E+02    0.48487E+02   -0.25272E+02  5008   0.147E+02    0.270E+01
DAV:   4    -0.468623027195E+02    0.47382E+01   -0.30827E+01  5032   0.593E+01    0.196E+01
DAV:   5    -0.448859554305E+02    0.19763E+01   -0.21273E+01  5204   0.391E+01    0.855E+00
DAV:   6    -0.439815461023E+02    0.90441E+00   -0.17232E+00  5008   0.207E+01    0.255E+00
DAV:   7    -0.439250409995E+02    0.56505E-01   -0.46807E-01  4764   0.535E+00    0.598E-01
DAV:   8    -0.439178200459E+02    0.72210E-02   -0.45933E-02  4496   0.204E+00    0.389E-01
DAV:   9    -0.439171185886E+02    0.70146E-03   -0.74065E-03  4920   0.830E-01    0.182E-01
DAV:  10    -0.439168271276E+02    0.29146E-03   -0.10265E-03  5028   0.316E-01    0.432E-02
DAV:  11    -0.439168223749E+02    0.47527E-05   -0.90759E-05  5312   0.993E-02    0.949E-03
DAV:  12    -0.439168236939E+02   -0.13191E-05   -0.12604E-05  4704   0.410E-02    0.857E-03
DAV:  13    -0.439168233922E+02    0.30177E-06   -0.17035E-06  5000   0.157E-02    0.208E-03
DAV:  14    -0.439168234180E+02   -0.25801E-07   -0.53265E-07  4976   0.600E-03    0.160E-03
DAV:  15    -0.439168233662E+02    0.51758E-07   -0.59192E-08  4008   0.258E-03    0.317E-04
DAV:  16    -0.439168233595E+02    0.66611E-08   -0.10960E-08  2352   0.828E-04
   2 F= -.43916823E+02 E0= -.43917396E+02  d E =-.280996E+00  mag=    -0.0000
       N       E                     dE             d eps       ncg     rms          rms(c)
DAV:   1    -0.599986465365E+02   -0.16082E+02   -0.14709E+02  4640   0.128E+02    0.412E+01
DAV:   2    -0.765946495599E+02   -0.16596E+02   -0.24916E+02  4768   0.161E+02    0.443E+01
DAV:   3    -0.442991414892E+02    0.32296E+02   -0.89004E+01  4776   0.969E+01    0.456E+00
DAV:   4    -0.443433667923E+02   -0.44225E-01   -0.48413E+00  5032   0.146E+01    0.645E+00
DAV:   5    -0.444046777040E+02   -0.61311E-01   -0.30251E+00  4928   0.161E+01    0.645E+00
DAV:   6    -0.441038917039E+02    0.30079E+00   -0.62446E-01  5064   0.107E+01    0.170E+00
DAV:   7    -0.440786106291E+02    0.25281E-01   -0.10830E-01  5808   0.316E+00    0.199E-01
DAV:   8    -0.440798179670E+02   -0.12073E-02   -0.13045E-02  4688   0.779E-01    0.356E-01
DAV:   9    -0.440787702992E+02    0.10477E-02   -0.27034E-03  4856   0.536E-01    0.543E-02
DAV:  10    -0.440787869962E+02   -0.16697E-04   -0.20337E-04  4680   0.113E-01    0.684E-02
DAV:  11    -0.440787447647E+02    0.42231E-04   -0.14540E-04  5112   0.124E-01    0.813E-03
DAV:  12    -0.440787451692E+02   -0.40449E-06   -0.14409E-05  4520   0.271E-02    0.478E-03
DAV:  13    -0.440787449319E+02    0.23727E-06   -0.71271E-07  5696   0.746E-03    0.681E-04
DAV:  14    -0.440787448708E+02    0.61074E-07   -0.13709E-07  4928   0.280E-03    0.146E-03
DAV:  15    -0.440787448679E+02    0.29140E-08   -0.78786E-08  4060   0.289E-03
   3 F= -.44078745E+02 E0= -.44077771E+02  d E =-.442918E+00  mag=    -0.0000
       N       E                     dE             d eps       ncg     rms          rms(c)
DAV:   1    -0.445251839293E+02   -0.44644E+00   -0.31945E+01  5056   0.958E+01    0.899E+00
DAV:   2    -0.447999568983E+02   -0.27477E+00   -0.10526E+01  4888   0.300E+01    0.667E+00
DAV:   3    -0.444783053011E+02    0.32165E+00   -0.24828E+00  4808   0.176E+01    0.522E+00
DAV:   4    -0.448382783105E+02   -0.35997E+00   -0.22992E+00  5056   0.229E+01    0.127E+01
DAV:   5    -0.442165854243E+02    0.62169E+00   -0.51582E+00  5336   0.124E+01    0.796E-01
DAV:   6    -0.442114012616E+02    0.51842E-02   -0.79992E-02  4656   0.209E+00    0.486E-01
DAV:   7    -0.442095365147E+02    0.18647E-02   -0.51695E-03  5984   0.572E-01    0.155E-01
DAV:   8    -0.442095179572E+02    0.18558E-04   -0.14219E-03  5864   0.280E-01    0.731E-02
DAV:   9    -0.442095151171E+02    0.28402E-05   -0.49039E-04  4548   0.240E-01    0.306E-02
DAV:  10    -0.442095111092E+02    0.40078E-05   -0.17046E-05  4604   0.362E-02    0.164E-02
DAV:  11    -0.442095093548E+02    0.17544E-05   -0.88322E-06  4836   0.280E-02    0.287E-03
DAV:  12    -0.442095093593E+02   -0.45220E-08   -0.67017E-07  4520   0.712E-03    0.884E-04
DAV:  13    -0.442095093548E+02    0.45729E-08   -0.29197E-08  3836   0.126E-03
   4 F= -.44209509E+02 E0= -.44209831E+02  d E =-.130764E+00  mag=    -0.0000
       N       E                     dE             d eps       ncg     rms          rms(c)
DAV:   1    -0.444763766730E+02   -0.26687E+00   -0.18902E+01  5008   0.725E+01    0.709E+00
DAV:   2    -0.446531981443E+02   -0.17682E+00   -0.64208E+00  4848   0.240E+01    0.541E+00
DAV:   3    -0.444204351484E+02    0.23276E+00   -0.14888E+00  4748   0.146E+01    0.402E+00
DAV:   4    -0.446011704429E+02   -0.18074E+00   -0.15724E+00  5000   0.197E+01    0.850E+00
DAV:   5    -0.442671212384E+02    0.33405E+00   -0.24019E+00  5232   0.975E+00    0.745E-01
DAV:   6    -0.442637993600E+02    0.33219E-02   -0.48062E-02  4784   0.167E+00    0.361E-01
DAV:   7    -0.442629212983E+02    0.87806E-03   -0.37694E-03  5912   0.469E-01    0.920E-02
DAV:   8    -0.442630041446E+02   -0.82846E-04   -0.84811E-04  4872   0.188E-01    0.457E-02
DAV:   9    -0.442629930975E+02    0.11047E-04   -0.13754E-04  4748   0.130E-01    0.145E-02
DAV:  10    -0.442629928800E+02    0.21750E-06   -0.18121E-05  4708   0.378E-02    0.672E-03
DAV:  11    -0.442629923913E+02    0.48872E-06   -0.15021E-06  4776   0.115E-02    0.112E-03
DAV:  12    -0.442629923813E+02    0.99644E-08   -0.17896E-07  4916   0.300E-03    0.105E-03
DAV:  13    -0.442629923701E+02    0.11201E-07   -0.11441E-08  2708   0.106E-03    0.488E-04
DAV:  14    -0.442629923686E+02    0.15280E-08   -0.84718E-09  2464   0.791E-04
   5 F= -.44262992E+02 E0= -.44262360E+02  d E =-.184248E+00  mag=    -0.0000
       N       E                     dE             d eps       ncg     rms          rms(c)
DAV:   1    -0.452610176250E+02   -0.99803E+00   -0.79288E+01  5120   0.149E+02    0.146E+01
DAV:   2    -0.459435948258E+02   -0.68258E+00   -0.26716E+01  4880   0.479E+01    0.108E+01
DAV:   3    -0.448332041671E+02    0.11104E+01   -0.59376E+00  4864   0.256E+01    0.726E+00
DAV:   4    -0.454489507648E+02   -0.61575E+00   -0.90088E+00  5320   0.266E+01    0.111E+01
DAV:   5    -0.443040368444E+02    0.11449E+01   -0.13493E+00  4936   0.219E+01    0.221E+00
DAV:   6    -0.442933226675E+02    0.10714E-01   -0.42827E-01  5896   0.573E+00    0.115E+00
DAV:   7    -0.442905621555E+02    0.27605E-02   -0.98573E-02  4844   0.285E+00    0.601E-01
DAV:   8    -0.442887749214E+02    0.17872E-02   -0.13158E-02  4904   0.116E+00    0.126E-01
DAV:   9    -0.442888067738E+02   -0.31852E-04   -0.93900E-04  4604   0.227E-01    0.995E-02
DAV:  10    -0.442887565292E+02    0.50245E-04   -0.17584E-04  6160   0.116E-01    0.178E-02
DAV:  11    -0.442887554529E+02    0.10763E-05   -0.23068E-05  5696   0.336E-02    0.789E-03
DAV:  12    -0.442887558317E+02   -0.37876E-06   -0.95557E-06  4800   0.312E-02    0.116E-02
DAV:  13    -0.442887550381E+02    0.79359E-06   -0.34102E-06  4912   0.178E-02    0.564E-04
DAV:  14    -0.442887550221E+02    0.15949E-07   -0.90713E-08  4108   0.186E-03    0.545E-04
DAV:  15    -0.442887550067E+02    0.15374E-07   -0.42340E-09  2344   0.611E-04    0.181E-04
DAV:  16    -0.442887550029E+02    0.38017E-08   -0.15591E-09  2304   0.252E-04
   6 F= -.44288755E+02 E0= -.44287444E+02  d E =-.210010E+00  mag=     0.0000
       N       E                     dE             d eps       ncg     rms          rms(c)
DAV:   1    -0.441986789580E+02    0.90076E-01   -0.45942E+00  4944   0.597E+01    0.344E+00
DAV:   2    -0.444844041823E+02   -0.28573E+00   -0.34930E+00  4992   0.158E+01    0.442E+00
DAV:   3    -0.444025741655E+02    0.81830E-01   -0.16547E+00  4856   0.114E+01    0.385E+00
DAV:   4    -0.443039724885E+02    0.98602E-01   -0.36435E-01  4824   0.952E+00    0.925E-01
DAV:   5    -0.442951929750E+02    0.87795E-02   -0.23934E-02  5288   0.145E+00    0.286E-01
DAV:   6    -0.442944494112E+02    0.74356E-03   -0.40820E-03  5272   0.484E-01    0.107E-01
DAV:   7    -0.442944082500E+02    0.41161E-04   -0.89880E-04  4848   0.313E-01    0.639E-02
DAV:   8    -0.442943936087E+02    0.14641E-04   -0.17316E-04  4880   0.125E-01    0.263E-02
DAV:   9    -0.442943908217E+02    0.27870E-05   -0.25104E-05  5168   0.479E-02    0.364E-03
DAV:  10    -0.442943908270E+02   -0.53187E-08   -0.16767E-06  5016   0.114E-02    0.127E-03
DAV:  11    -0.442943908648E+02   -0.37755E-07   -0.16831E-07  4952   0.444E-03    0.817E-04
DAV:  12    -0.442943908837E+02   -0.18954E-07   -0.36430E-08  2792   0.189E-03    0.411E-04
DAV:  13    -0.442943908866E+02   -0.28667E-08   -0.72896E-09  2312   0.813E-04
   7 F= -.44294391E+02 E0= -.44292744E+02  d E =-.563588E-02  mag=     0.0000
       N       E                     dE             d eps       ncg     rms          rms(c)
DAV:   1    -0.442737996753E+02    0.20591E-01   -0.10020E+00  5016   0.280E+01    0.163E+00
DAV:   2    -0.443358558844E+02   -0.62056E-01   -0.75778E-01  5016   0.734E+00    0.197E+00
DAV:   3    -0.443133743811E+02    0.22482E-01   -0.28263E-01  4848   0.511E+00    0.172E+00
DAV:   4    -0.442972665774E+02    0.16108E-01   -0.94085E-02  4944   0.329E+00    0.462E-01
DAV:   5    -0.442951180273E+02    0.21486E-02   -0.47028E-03  5136   0.740E-01    0.140E-01
DAV:   6    -0.442949461217E+02    0.17191E-03   -0.83120E-04  5088   0.239E-01    0.427E-02
DAV:   7    -0.442949403653E+02    0.57564E-05   -0.14037E-04  4856   0.122E-01    0.231E-02
DAV:   8    -0.442949396207E+02    0.74463E-06   -0.20505E-05  4996   0.420E-02    0.787E-03
DAV:   9    -0.442949395019E+02    0.11875E-06   -0.25496E-06  5264   0.149E-02    0.121E-03
DAV:  10    -0.442949395203E+02   -0.18386E-07   -0.14985E-07  4416   0.320E-03    0.333E-04
DAV:  11    -0.442949395398E+02   -0.19441E-07   -0.11543E-08  2448   0.126E-03    0.163E-04
DAV:  12    -0.442949395490E+02   -0.92441E-08   -0.25350E-09  2328   0.485E-04
   8 F= -.44294940E+02 E0= -.44293340E+02  d E =-.618455E-02  mag=     0.0000
       N       E                     dE             d eps       ncg     rms          rms(c)
DAV:   1    -0.442665415440E+02    0.28398E-01   -0.24755E+00  4992   0.435E+01    0.285E+00
DAV:   2    -0.444216018961E+02   -0.15506E+00   -0.19318E+00  5004   0.118E+01    0.308E+00
DAV:   3    -0.443042503786E+02    0.11735E+00   -0.39794E-01  4828   0.659E+00    0.769E-01
DAV:   4    -0.443055379228E+02   -0.12875E-02   -0.45886E-02  5288   0.205E+00    0.107E+00
DAV:   5    -0.442991401848E+02    0.63977E-02   -0.32727E-02  5024   0.194E+00    0.268E-01
DAV:   6    -0.442985081482E+02    0.63204E-03   -0.20777E-03  6132   0.431E-01    0.725E-02
DAV:   7    -0.442984727412E+02    0.35407E-04   -0.24075E-04  4896   0.106E-01    0.244E-02
DAV:   8    -0.442984698103E+02    0.29309E-05   -0.16846E-05  4828   0.358E-02    0.678E-03
DAV:   9    -0.442984693109E+02    0.49941E-06   -0.29002E-06  4816   0.170E-02    0.266E-03
DAV:  10    -0.442984690419E+02    0.26900E-06   -0.46164E-07  4708   0.701E-03    0.120E-03
DAV:  11    -0.442984690239E+02    0.18044E-07   -0.37587E-08  3128   0.195E-03    0.194E-04
DAV:  12    -0.442984690173E+02    0.65993E-08   -0.36675E-09  2364   0.454E-04
   9 F= -.44298469E+02 E0= -.44297109E+02  d E =-.352947E-02  mag=    -0.0000
       N       E                     dE             d eps       ncg     rms          rms(c)
DAV:   1    -0.442811394892E+02    0.17330E-01   -0.14303E+00  4992   0.330E+01    0.219E+00
DAV:   2    -0.443726474578E+02   -0.91508E-01   -0.11164E+00  5012   0.905E+00    0.238E+00
DAV:   3    -0.443023429133E+02    0.70305E-01   -0.23123E-01  4820   0.509E+00    0.543E-01
DAV:   4    -0.442997226792E+02    0.26202E-02   -0.83216E-03  4816   0.822E-01    0.217E-01
DAV:   5    -0.443016651313E+02   -0.19425E-02   -0.14324E-02  5000   0.117E+00    0.646E-01
DAV:   6    -0.442993008205E+02    0.23643E-02   -0.94822E-03  4900   0.987E-01    0.562E-02
DAV:   7    -0.442992753235E+02    0.25497E-04   -0.30284E-04  4808   0.104E-01    0.205E-02
DAV:   8    -0.442992730851E+02    0.22384E-05   -0.22009E-05  5488   0.414E-02    0.872E-03
DAV:   9    -0.442992723264E+02    0.75867E-06   -0.31983E-06  4600   0.170E-02    0.213E-03
DAV:  10    -0.442992721442E+02    0.18221E-06   -0.23385E-07  5168   0.459E-03    0.677E-04
DAV:  11    -0.442992720654E+02    0.78828E-07   -0.16947E-08  2924   0.115E-03    0.128E-04
DAV:  12    -0.442992720585E+02    0.68685E-08   -0.24717E-09  2388   0.445E-04
  10 F= -.44299272E+02 E0= -.44298161E+02  d E =-.433251E-02  mag=    -0.0000
       N       E                     dE             d eps       ncg     rms          rms(c)
DAV:   1    -0.443033162767E+02   -0.40442E-02   -0.17544E-01  4904   0.532E+00    0.647E-01
DAV:   2    -0.443024367082E+02    0.87957E-03   -0.37137E-02  4752   0.183E+00    0.428E-01
DAV:   3    -0.443029601054E+02   -0.52340E-03   -0.17743E-02  4848   0.148E+00    0.654E-01
DAV:   4    -0.443018830770E+02    0.10770E-02   -0.23548E-02  5024   0.151E+00    0.502E-01
DAV:   5    -0.443000690233E+02    0.18141E-02   -0.65149E-03  5136   0.733E-01    0.287E-02
DAV:   6    -0.443000791150E+02   -0.10092E-04   -0.35269E-04  4592   0.144E-01    0.168E-02
DAV:   7    -0.443000773201E+02    0.17949E-05   -0.16952E-05  5736   0.376E-02    0.721E-03
DAV:   8    -0.443000774578E+02   -0.13769E-06   -0.19469E-06  5028   0.122E-02    0.200E-03
DAV:   9    -0.443000774926E+02   -0.34819E-07   -0.12293E-07  4960   0.228E-03    0.950E-04
DAV:  10    -0.443000774550E+02    0.37628E-07   -0.41575E-08  3972   0.184E-03    0.306E-04
DAV:  11    -0.443000774512E+02    0.38053E-08   -0.38389E-09  2340   0.612E-04
  11 F= -.44300077E+02 E0= -.44299257E+02  d E =-.805393E-03  mag=     0.0000
       N       E                     dE             d eps       ncg     rms          rms(c)
DAV:   1    -0.443322064018E+02   -0.32129E-01   -0.15850E+00  4920   0.160E+01    0.196E+00
DAV:   2    -0.443249200698E+02    0.72863E-02   -0.34051E-01  4752   0.555E+00    0.132E+00
DAV:   3    -0.443273235915E+02   -0.24035E-02   -0.15946E-01  4840   0.443E+00    0.188E+00
DAV:   4    -0.443201498601E+02    0.71737E-02   -0.20489E-01  4984   0.474E+00    0.164E+00
DAV:   5    -0.443025065519E+02    0.17643E-01   -0.74929E-02  5304   0.230E+00    0.139E-01
DAV:   6    -0.443025066763E+02   -0.12442E-06   -0.35082E-03  4600   0.482E-01    0.504E-02
DAV:   7    -0.443024927095E+02    0.13967E-04   -0.18169E-04  5248   0.129E-01    0.211E-02
DAV:   8    -0.443024947678E+02   -0.20583E-05   -0.19473E-05  5120   0.385E-02    0.645E-03
DAV:   9    -0.443024950982E+02   -0.33045E-06   -0.16455E-06  5816   0.107E-02    0.285E-03
DAV:  10    -0.443024949609E+02    0.13730E-06   -0.40982E-07  4840   0.601E-03    0.124E-03
DAV:  11    -0.443024949420E+02    0.18965E-07   -0.35607E-08  3600   0.184E-03    0.324E-04
DAV:  12    -0.443024949231E+02    0.18859E-07   -0.81861E-09  2400   0.782E-04    0.680E-05
DAV:  13    -0.443024949220E+02    0.11642E-08   -0.11971E-09  2296   0.290E-04
  12 F= -.44302495E+02 E0= -.44302344E+02  d E =-.322286E-02  mag=    -0.0000
       N       E                     dE             d eps       ncg     rms          rms(c)
DAV:   1    -0.444296784984E+02   -0.12718E+00   -0.64055E+00  4904   0.323E+01    0.395E+00
DAV:   2    -0.443994688121E+02    0.30210E-01   -0.13764E+00  4800   0.111E+01    0.261E+00
DAV:   3    -0.443820042647E+02    0.17465E-01   -0.47268E-01  4800   0.777E+00    0.306E+00
DAV:   4    -0.444095194961E+02   -0.27515E-01   -0.82116E-01  5032   0.995E+00    0.455E+00
DAV:   5    -0.443072236144E+02    0.10230E+00   -0.59289E-01  5184   0.536E+00    0.418E-01
DAV:   6    -0.443063166428E+02    0.90697E-03   -0.18492E-02  4768   0.107E+00    0.110E-01
DAV:   7    -0.443062303604E+02    0.86282E-04   -0.91386E-04  4816   0.279E-01    0.452E-02
DAV:   8    -0.443062462808E+02   -0.15920E-04   -0.95254E-05  5624   0.770E-02    0.219E-02
DAV:   9    -0.443062457379E+02    0.54280E-06   -0.18995E-05  5088   0.428E-02    0.621E-03
DAV:  10    -0.443062453802E+02    0.35772E-06   -0.11446E-06  4736   0.911E-03    0.307E-03
DAV:  11    -0.443062452589E+02    0.12137E-06   -0.38851E-07  4840   0.567E-03    0.879E-04
DAV:  12    -0.443062452341E+02    0.24727E-07   -0.57454E-08  4344   0.222E-03    0.253E-04
DAV:  13    -0.443062452262E+02    0.78871E-08   -0.15709E-09  2328   0.388E-04
  13 F= -.44306245E+02 E0= -.44305934E+02  d E =-.697317E-02  mag=     0.0000
       N       E                     dE             d eps       ncg     rms          rms(c)
DAV:   1    -0.443339190575E+02   -0.27674E-01   -0.13927E+00  4880   0.149E+01    0.181E+00
DAV:   2    -0.443274076835E+02    0.65114E-02   -0.29921E-01  4784   0.519E+00    0.123E+00
DAV:   3    -0.443236682337E+02    0.37394E-02   -0.10261E-01  4856   0.361E+00    0.151E+00
DAV:   4    -0.443260568451E+02   -0.23886E-02   -0.17930E-01  5008   0.418E+00    0.183E+00
DAV:   5    -0.443063017394E+02    0.19755E-01   -0.85031E-02  5304   0.241E+00    0.121E-01
DAV:   6    -0.443063038754E+02   -0.21360E-05   -0.33887E-03  4592   0.444E-01    0.516E-02
DAV:   7    -0.443062916411E+02    0.12234E-04   -0.15336E-04  5408   0.116E-01    0.215E-02
DAV:   8    -0.443062944089E+02   -0.27679E-05   -0.15081E-05  5272   0.325E-02    0.773E-03
DAV:   9    -0.443062946381E+02   -0.22916E-06   -0.19689E-06  5808   0.125E-02    0.261E-03
DAV:  10    -0.443062945180E+02    0.12008E-06   -0.25334E-07  4816   0.494E-03    0.110E-03
DAV:  11    -0.443062944928E+02    0.25248E-07   -0.31090E-08  3028   0.179E-03    0.343E-04
DAV:  12    -0.443062944847E+02    0.80727E-08   -0.66093E-09  2336   0.737E-04
  14 F= -.44306294E+02 E0= -.44305439E+02  d E =-.702243E-02  mag=     0.0000
       N       E                     dE             d eps       ncg     rms          rms(c)
DAV:   1    -0.443122471324E+02   -0.59526E-02   -0.28387E-01  4896   0.666E+00    0.827E-01
DAV:   2    -0.443113720760E+02    0.87506E-03   -0.63125E-02  4848   0.244E+00    0.637E-01
DAV:   3    -0.443121057529E+02   -0.73368E-03   -0.36128E-02  4920   0.208E+00    0.968E-01
DAV:   4    -0.443090251029E+02    0.30806E-02   -0.40021E-02  5008   0.177E+00    0.541E-01
DAV:   5    -0.443064197267E+02    0.26054E-02   -0.68224E-03  5352   0.807E-01    0.373E-02
DAV:   6    -0.443064391402E+02   -0.19413E-04   -0.53523E-04  4576   0.177E-01    0.205E-02
DAV:   7    -0.443064387048E+02    0.43540E-06   -0.26022E-05  5176   0.431E-02    0.104E-02
DAV:   8    -0.443064385895E+02    0.11522E-06   -0.47757E-06  4944   0.188E-02    0.330E-03
DAV:   9    -0.443064387765E+02   -0.18696E-06   -0.40887E-07  5312   0.531E-03    0.108E-03
DAV:  10    -0.443064387902E+02   -0.13722E-07   -0.50080E-08  4552   0.190E-03    0.167E-04
DAV:  11    -0.443064387918E+02   -0.16225E-08   -0.28012E-09  2328   0.516E-04
  15 F= -.44306439E+02 E0= -.44305850E+02  d E =-.716673E-02  mag=    -0.0000
       N       E                     dE             d eps       ncg     rms          rms(c)
DAV:   1    -0.442967272704E+02    0.97115E-02   -0.18211E+00  4864   0.357E+01    0.258E+00
DAV:   2    -0.444118135485E+02   -0.11509E+00   -0.14720E+00  4912   0.109E+01    0.282E+00
DAV:   3    -0.443163488402E+02    0.95465E-01   -0.35475E-01  4816   0.614E+00    0.119E+00
DAV:   4    -0.443125671955E+02    0.37816E-02   -0.64472E-02  5264   0.261E+00    0.821E-01
DAV:   5    -0.443070315075E+02    0.55357E-02   -0.15303E-02  5432   0.129E+00    0.154E-01
DAV:   6    -0.443067300614E+02    0.30145E-03   -0.12974E-03  4992   0.285E-01    0.498E-02
DAV:   7    -0.443067210750E+02    0.89864E-05   -0.14988E-04  4896   0.857E-02    0.251E-02
DAV:   8    -0.443067197726E+02    0.13024E-05   -0.12353E-05  5840   0.277E-02    0.799E-03
DAV:   9    -0.443067201536E+02   -0.38109E-06   -0.27699E-06  4656   0.162E-02    0.191E-03
DAV:  10    -0.443067202071E+02   -0.53427E-07   -0.22837E-07  4560   0.458E-03    0.516E-04
DAV:  11    -0.443067202438E+02   -0.36740E-07   -0.95019E-09  2480   0.928E-04    0.104E-04
DAV:  12    -0.443067202449E+02   -0.10696E-08   -0.22553E-09  2320   0.446E-04
  16 F= -.44306720E+02 E0= -.44305705E+02  d E =-.281453E-03  mag=    -0.0000
       N       E                     dE             d eps       ncg     rms          rms(c)
DAV:   1    -0.443049655518E+02    0.17547E-02   -0.31662E-01  4896   0.150E+01    0.107E+00
DAV:   2    -0.443247974573E+02   -0.19832E-01   -0.25370E-01  4920   0.453E+00    0.117E+00
DAV:   3    -0.443085565500E+02    0.16241E-01   -0.59673E-02  4824   0.257E+00    0.469E-01
DAV:   4    -0.443082852954E+02    0.27125E-03   -0.11983E-02  5248   0.106E+00    0.398E-01
DAV:   5    -0.443070870683E+02    0.11982E-02   -0.34241E-03  5304   0.625E-01    0.583E-02
DAV:   6    -0.443070327588E+02    0.54309E-04   -0.24765E-04  5040   0.118E-01    0.218E-02
DAV:   7    -0.443070292943E+02    0.34645E-05   -0.24222E-05  5600   0.346E-02    0.114E-02
DAV:   8    -0.443070277609E+02    0.15334E-05   -0.24570E-06  5280   0.127E-02    0.239E-03
DAV:   9    -0.443070275755E+02    0.18543E-06   -0.34065E-07  4584   0.565E-03    0.552E-04
DAV:  10    -0.443070275173E+02    0.58186E-07   -0.31305E-08  3904   0.171E-03    0.204E-04
DAV:  11    -0.443070275116E+02    0.57626E-08   -0.20377E-09  2336   0.449E-04
  17 F= -.44307028E+02 E0= -.44306197E+02  d E =-.588720E-03  mag=     0.0000
       N       E                     dE             d eps       ncg     rms          rms(c)
DAV:   1    -0.442605358546E+02    0.46492E-01   -0.16695E+00  5120   0.386E+01    0.195E+00
DAV:   2    -0.443593656111E+02   -0.98830E-01   -0.11724E+00  5008   0.869E+00    0.206E+00
DAV:   3    -0.443155056702E+02    0.43860E-01   -0.23150E-01  4824   0.515E+00    0.123E+00
DAV:   4    -0.443100535841E+02    0.54521E-02   -0.53344E-02  5120   0.217E+00    0.567E-01
DAV:   5    -0.443078738427E+02    0.21797E-02   -0.32888E-03  4928   0.621E-01    0.262E-01
DAV:   6    -0.443071294537E+02    0.74439E-03   -0.14714E-03  4840   0.394E-01    0.370E-02
DAV:   7    -0.443071220637E+02    0.73901E-05   -0.18138E-04  4648   0.117E-01    0.134E-02
DAV:   8    -0.443071215175E+02    0.54616E-06   -0.78427E-06  5368   0.335E-02    0.439E-03
DAV:   9    -0.443071211866E+02    0.33092E-06   -0.94661E-07  4856   0.717E-03    0.794E-04
DAV:  10    -0.443071210822E+02    0.10439E-06   -0.64935E-08  4776   0.227E-03    0.570E-04
DAV:  11    -0.443071210647E+02    0.17455E-07   -0.13077E-08  2368   0.127E-03    0.887E-05
DAV:  12    -0.443071210482E+02    0.16524E-07   -0.22973E-09  2280   0.580E-04    0.224E-05
DAV:  13    -0.443071210482E+02   -0.72760E-11   -0.85547E-10  2248   0.240E-04
  18 F= -.44307121E+02 E0= -.44306071E+02  d E =-.935367E-04  mag=    -0.0000
       N       E                     dE             d eps       ncg     rms          rms(c)
DAV:   1    -0.442973072756E+02    0.98138E-02   -0.35506E-01  5056   0.177E+01    0.924E-01
DAV:   2    -0.443195360786E+02   -0.22229E-01   -0.25890E-01  5008   0.408E+00    0.982E-01
DAV:   3    -0.443086269564E+02    0.10909E-01   -0.48215E-02  4816   0.231E+00    0.451E-01
DAV:   4    -0.443079155803E+02    0.71138E-03   -0.78308E-03  5200   0.891E-01    0.253E-01
DAV:   5    -0.443075051523E+02    0.41043E-03   -0.76700E-04  4944   0.303E-01    0.117E-01
DAV:   6    -0.443073657468E+02    0.13941E-03   -0.30091E-04  4904   0.182E-01    0.213E-02
DAV:   7    -0.443073667024E+02   -0.95562E-06   -0.45633E-05  4832   0.591E-02    0.590E-03
DAV:   8    -0.443073664089E+02    0.29354E-06   -0.26363E-06  4800   0.215E-02    0.348E-03
DAV:   9    -0.443073666470E+02   -0.23813E-06   -0.37913E-07  5328   0.517E-03    0.416E-04
DAV:  10    -0.443073667195E+02   -0.72432E-07   -0.27034E-08  3832   0.186E-03    0.335E-04
DAV:  11    -0.443073667385E+02   -0.19019E-07   -0.49927E-09  2288   0.739E-04    0.541E-05
DAV:  12    -0.443073667467E+02   -0.81927E-08   -0.91695E-10  2240   0.342E-04
  19 F= -.44307367E+02 E0= -.44306421E+02  d E =-.339235E-03  mag=    -0.0000
       N       E                     dE             d eps       ncg     rms          rms(c)
DAV:   1    -0.443067599023E+02    0.60684E-03   -0.27046E-02  5024   0.450E+00    0.255E-01
DAV:   2    -0.443082595953E+02   -0.14997E-02   -0.18292E-02  5016   0.110E+00    0.259E-01
DAV:   3    -0.443075395848E+02    0.72001E-03   -0.30022E-03  4776   0.612E-01    0.142E-01
DAV:   4    -0.443074991369E+02    0.40448E-04   -0.99289E-04  4888   0.306E-01    0.108E-01
DAV:   5    -0.443074040100E+02    0.95127E-04   -0.24991E-04  5176   0.161E-01    0.163E-02
DAV:   6    -0.443074020212E+02    0.19888E-05   -0.22925E-05  4920   0.364E-02    0.562E-03
DAV:   7    -0.443074021701E+02   -0.14882E-06   -0.21364E-06  5160   0.132E-02    0.313E-03
DAV:   8    -0.443074023041E+02   -0.13401E-06   -0.40884E-07  4920   0.575E-03    0.121E-03
DAV:   9    -0.443074023315E+02   -0.27405E-07   -0.51583E-08  4136   0.219E-03    0.188E-04
DAV:  10    -0.443074023417E+02   -0.10215E-07   -0.30723E-09  2248   0.505E-04    0.322E-05
DAV:  11    -0.443074023457E+02   -0.40309E-08   -0.66886E-10  2256   0.193E-04
  20 F= -.44307402E+02 E0= -.44306494E+02  d E =-.355990E-04  mag=    -0.0000
       N       E                     dE             d eps       ncg     rms          rms(c)
DAV:   1    -0.443071541534E+02    0.24819E-03   -0.10831E-02  5024   0.285E+00    0.161E-01
DAV:   2    -0.443077520299E+02   -0.59788E-03   -0.73166E-03  5016   0.696E-01    0.164E-01
DAV:   3    -0.443074657201E+02    0.28631E-03   -0.12023E-03  4776   0.388E-01    0.900E-02
DAV:   4    -0.443074492466E+02    0.16473E-04   -0.39608E-04  4912   0.194E-01    0.684E-02
DAV:   5    -0.443074114740E+02    0.37773E-04   -0.10032E-04  5176   0.102E-01    0.103E-02
DAV:   6    -0.443074108317E+02    0.64234E-06   -0.92655E-06  4920   0.232E-02    0.355E-03
DAV:   7    -0.443074109384E+02   -0.10673E-06   -0.86546E-07  5152   0.841E-03    0.198E-03
DAV:   8    -0.443074110241E+02   -0.85678E-07   -0.16400E-07  4904   0.365E-03    0.766E-04
DAV:   9    -0.443074110438E+02   -0.19776E-07   -0.19058E-08  2624   0.139E-03    0.114E-04
DAV:  10    -0.443074110509E+02   -0.71086E-08   -0.26090E-09  2232   0.341E-04
  21 F= -.44307411E+02 E0= -.44306527E+02  d E =-.443043E-04  mag=    -0.0000
       N       E                     dE             d eps       ncg     rms          rms(c)
DAV:   1    -0.443076803008E+02   -0.26926E-03   -0.10819E-02  5400   0.204E+00    0.210E-01
DAV:   2    -0.443081098343E+02   -0.42953E-03   -0.69489E-03  4856   0.832E-01    0.235E-01
DAV:   3    -0.443075769390E+02    0.53290E-03   -0.27232E-03  4840   0.538E-01    0.155E-01
DAV:   4    -0.443074942223E+02    0.82717E-04   -0.10160E-03  4800   0.313E-01    0.846E-02
DAV:   5    -0.443074299670E+02    0.64255E-04   -0.16102E-04  5816   0.135E-01    0.956E-03
DAV:   6    -0.443074295014E+02    0.46567E-06   -0.12295E-05  4784   0.283E-02    0.369E-03
DAV:   7    -0.443074292610E+02    0.24038E-06   -0.64591E-07  5176   0.803E-03    0.189E-03
DAV:   8    -0.443074291181E+02    0.14293E-06   -0.10714E-07  4704   0.260E-03    0.494E-04
DAV:   9    -0.443074290949E+02    0.23192E-07   -0.99412E-09  2328   0.102E-03    0.955E-05
DAV:  10    -0.443074290882E+02    0.67121E-08   -0.18886E-09  2256   0.326E-04
  22 F= -.44307429E+02 E0= -.44306588E+02  d E =-.180372E-04  mag=     0.0000
       N       E                     dE             d eps       ncg     rms          rms(c)
DAV:   1    -0.443074851474E+02   -0.56053E-04   -0.23555E-03  5384   0.952E-01    0.982E-02
DAV:   2    -0.443075814769E+02   -0.96330E-04   -0.15240E-03  4856   0.389E-01    0.110E-01
DAV:   3    -0.443074638053E+02    0.11767E-03   -0.59531E-04  4840   0.251E-01    0.719E-02
DAV:   4    -0.443074456563E+02    0.18149E-04   -0.21906E-04  4816   0.146E-01    0.394E-02
DAV:   5    -0.443074315127E+02    0.14144E-04   -0.35029E-05  5808   0.627E-02    0.451E-03
DAV:   6    -0.443074313496E+02    0.16312E-06   -0.26896E-06  4768   0.132E-02    0.172E-03
DAV:   7    -0.443074312578E+02    0.91764E-07   -0.14118E-07  4880   0.376E-03    0.882E-04
DAV:   8    -0.443074311930E+02    0.64832E-07   -0.22227E-08  3240   0.122E-03    0.236E-04
DAV:   9    -0.443074311816E+02    0.11409E-07   -0.36066E-09  2248   0.572E-04    0.479E-05
DAV:  10    -0.443074311778E+02    0.38199E-08   -0.80925E-10  2192   0.202E-04
  23 F= -.44307431E+02 E0= -.44306610E+02  d E =-.201268E-04  mag=     0.0000
       N       E                     dE             d eps       ncg     rms          rms(c)
DAV:   1    -0.443076048313E+02   -0.17365E-03   -0.36531E-03  4728   0.402E-01    0.115E-01
DAV:   2    -0.443075937911E+02    0.11040E-04   -0.94970E-04  4880   0.324E-01    0.114E-01
DAV:   3    -0.443074897320E+02    0.10406E-03   -0.60414E-04  4792   0.276E-01    0.897E-02
DAV:   4    -0.443074768412E+02    0.12891E-04   -0.46725E-04  4896   0.203E-01    0.713E-02
DAV:   5    -0.443074391303E+02    0.37711E-04   -0.10479E-04  5632   0.957E-02    0.780E-03
DAV:   6    -0.443074388215E+02    0.30880E-06   -0.64119E-06  4584   0.186E-02    0.245E-03
DAV:   7    -0.443074388484E+02   -0.26914E-07   -0.27823E-07  5520   0.470E-03    0.110E-03
DAV:   8    -0.443074388950E+02   -0.46559E-07   -0.53842E-08  3976   0.194E-03    0.325E-04
DAV:   9    -0.443074388969E+02   -0.18772E-08   -0.31750E-09  2280   0.529E-04
  24 F= -.44307439E+02 E0= -.44306649E+02  d E =-.771910E-05  mag=     0.0000
       N       E                     dE             d eps       ncg     rms          rms(c)
DAV:   1    -0.443075341733E+02   -0.95278E-04   -0.20220E-03  4728   0.299E-01    0.853E-02
DAV:   2    -0.443075275221E+02    0.66513E-05   -0.52488E-04  4880   0.241E-01    0.850E-02
DAV:   3    -0.443074700997E+02    0.57422E-04   -0.33173E-04  4792   0.205E-01    0.662E-02
DAV:   4    -0.443074635427E+02    0.65570E-05   -0.25830E-04  4896   0.151E-01    0.535E-02
DAV:   5    -0.443074424337E+02    0.21109E-04   -0.59090E-05  5632   0.717E-02    0.578E-03
DAV:   6    -0.443074422580E+02    0.17574E-06   -0.35557E-06  4584   0.138E-02    0.183E-03
DAV:   7    -0.443074422786E+02   -0.20635E-07   -0.15380E-07  5520   0.350E-03    0.817E-04
DAV:   8    -0.443074423123E+02   -0.33702E-07   -0.29134E-08  3736   0.142E-03    0.239E-04
DAV:   9    -0.443074423146E+02   -0.23138E-08   -0.17805E-09  2264   0.393E-04
  25 F= -.44307442E+02 E0= -.44306675E+02  d E =-.111369E-04  mag=     0.0000
