       N       E                     dE             d eps       ncg     rms          rms(c)
DAV:   1     0.635485690597E+03    0.63549E+03   -0.34727E+04  7600   0.146E+03
DAV:   2    -0.658030257364E+00   -0.63614E+03   -0.60218E+03  6420   0.463E+02
DAV:   3    -0.413384798479E+02   -0.40680E+02   -0.38099E+02  7368   0.131E+02
DAV:   4    -0.425686995048E+02   -0.12302E+01   -0.12234E+01  7168   0.220E+01
DAV:   5    -0.426017828951E+02   -0.33083E-01   -0.33075E-01  7416   0.391E+00    0.306E+01
DAV:   6    -0.654253933359E+02   -0.22824E+02   -0.17537E+02  7464   0.167E+02    0.411E+01
DAV:   7    -0.375721887447E+02    0.27853E+02   -0.66125E+01  7208   0.108E+02    0.929E+00
DAV:   8    -0.371058938122E+02    0.46629E+00   -0.83250E+00  8552   0.278E+01    0.479E+00
DAV:   9    -0.370110512924E+02    0.94843E-01   -0.98085E-01  7652   0.136E+01    0.316E+00
DAV:  10    -0.369511180866E+02    0.59933E-01   -0.30804E-01  7944   0.986E+00    0.135E+00
DAV:  11    -0.369307582533E+02    0.20360E-01   -0.36754E-02  7748   0.180E+00    0.622E-01
DAV:  12    -0.369278565366E+02    0.29017E-02   -0.15741E-02  8648   0.135E+00    0.205E-01
DAV:  13    -0.369278641129E+02   -0.75764E-05   -0.14283E-03  7416   0.312E-01    0.181E-01
DAV:  14    -0.369275713334E+02    0.29278E-03   -0.45517E-04  8536   0.241E-01    0.435E-02
DAV:  15    -0.369275568486E+02    0.14485E-04   -0.78385E-05  8708   0.723E-02    0.902E-03
DAV:  16    -0.369275566088E+02    0.23980E-06   -0.31481E-06  7836   0.142E-02    0.308E-03
DAV:  17    -0.369275564273E+02    0.18152E-06   -0.31346E-07  7104   0.417E-03    0.108E-03
DAV:  18    -0.369275563678E+02    0.59510E-07   -0.65876E-08  6384   0.232E-03    0.643E-04
DAV:  19    -0.369275563169E+02    0.50883E-07   -0.82556E-09  3916   0.862E-04    0.246E-04
DAV:  20    -0.369275563015E+02    0.15389E-07   -0.28114E-09  3592   0.410E-04    0.493E-05
DAV:  21    -0.369275563015E+02    0.32742E-10   -0.62257E-10  3544   0.188E-04
   1 F= -.36927556E+02 E0= -.36927067E+02  d E =-.369276E+02  mag=     0.0000
       N       E                     dE             d eps       ncg     rms          rms(c)
DAV:   1    -0.245803728559E+03   -0.20888E+03   -0.30664E+03  6252   0.711E+02    0.105E+02
DAV:   2    -0.775244869728E+02    0.16828E+03   -0.11167E+03  7072   0.247E+02    0.554E+01
DAV:   3    -0.809872795142E+02   -0.34628E+01   -0.31707E+02  6852   0.187E+02    0.517E+01
DAV:   4    -0.402755660537E+02    0.40712E+02   -0.11892E+02  7244   0.106E+02    0.889E+00
DAV:   5    -0.390814511241E+02    0.11941E+01   -0.46767E+00  6592   0.169E+01    0.100E+01
DAV:   6    -0.385219362201E+02    0.55951E+00   -0.33186E+00  7900   0.250E+01    0.723E+00
DAV:   7    -0.382742023497E+02    0.24773E+00   -0.11706E+00  8480   0.155E+01    0.617E+00
DAV:   8    -0.379219042874E+02    0.35230E+00   -0.74414E-01  7540   0.918E+00    0.605E-01
DAV:   9    -0.379243042093E+02   -0.23999E-02   -0.38356E-02  6604   0.170E+00    0.753E-01
DAV:  10    -0.379203416935E+02    0.39625E-02   -0.10004E-02  7660   0.108E+00    0.204E-01
DAV:  11    -0.379202951015E+02    0.46592E-04   -0.15420E-03  7448   0.387E-01    0.558E-02
DAV:  12    -0.379203065566E+02   -0.11455E-04   -0.10808E-04  6944   0.854E-02    0.203E-02
DAV:  13    -0.379203075098E+02   -0.95316E-06   -0.54603E-06  8564   0.203E-02    0.885E-03
DAV:  14    -0.379203073922E+02    0.11763E-06   -0.17373E-06  8512   0.141E-02    0.307E-03
DAV:  15    -0.379203072232E+02    0.16892E-06   -0.53316E-07  7316   0.705E-03    0.116E-03
DAV:  16    -0.379203071988E+02    0.24462E-07   -0.43588E-08  5932   0.178E-03    0.620E-04
DAV:  17    -0.379203071868E+02    0.12016E-07   -0.43829E-09  3528   0.729E-04    0.157E-04
DAV:  18    -0.379203071820E+02    0.47803E-08   -0.28466E-09  3500   0.283E-04
   2 F= -.37920307E+02 E0= -.37920540E+02  d E =-.992751E+00  mag=     0.0000
       N       E                     dE             d eps       ncg     rms          rms(c)
DAV:   1    -0.128210659595E+03   -0.90290E+02   -0.61536E+02  7180   0.257E+02    0.103E+02
DAV:   2    -0.256732338987E+03   -0.12852E+03   -0.15624E+03  7096   0.474E+02    0.842E+01
DAV:   3    -0.712929543008E+02    0.18544E+03   -0.64607E+02  6796   0.199E+02    0.352E+01
DAV:   4    -0.596508449405E+02    0.11642E+02   -0.22111E+01  6804   0.364E+01    0.294E+01
DAV:   5    -0.439798575685E+02    0.15671E+02   -0.13864E+01  7508   0.419E+01    0.151E+01
DAV:   6    -0.461137404347E+02   -0.21339E+01   -0.45746E+01  8528   0.696E+01    0.291E+01
DAV:   7    -0.445514477468E+02    0.15623E+01   -0.38169E+00  7456   0.129E+01    0.256E+01
DAV:   8    -0.401210222150E+02    0.44304E+01   -0.33903E+00  8392   0.181E+01    0.115E+01
DAV:   9    -0.396423400575E+02    0.47868E+00   -0.40332E-01  8720   0.427E+00    0.833E+00
DAV:  10    -0.391173725641E+02    0.52497E+00   -0.43880E-01  8192   0.706E+00    0.310E+00
DAV:  11    -0.390909407268E+02    0.26432E-01   -0.39447E-02  7456   0.113E+00    0.249E+00
DAV:  12    -0.390349416047E+02    0.55999E-01   -0.10741E-01  8344   0.353E+00    0.317E-01
DAV:  13    -0.390353345897E+02   -0.39298E-03   -0.82750E-03  7100   0.498E-01    0.232E-01
DAV:  14    -0.390352550879E+02    0.79502E-04   -0.29763E-03  8044   0.605E-01    0.231E-01
DAV:  15    -0.390352235332E+02    0.31555E-04   -0.25550E-03  7548   0.596E-01    0.201E-01
DAV:  16    -0.390348913350E+02    0.33220E-03   -0.33438E-04  7520   0.226E-01    0.367E-02
DAV:  17    -0.390348764599E+02    0.14875E-04   -0.67643E-05  8716   0.730E-02    0.137E-02
DAV:  18    -0.390348763236E+02    0.13626E-06   -0.80586E-06  8052   0.295E-02    0.569E-03
DAV:  19    -0.390348759417E+02    0.38194E-06   -0.23226E-07  6848   0.499E-03    0.287E-03
DAV:  20    -0.390348757571E+02    0.18453E-06   -0.12184E-07  7852   0.347E-03    0.751E-04
DAV:  21    -0.390348757340E+02    0.23112E-07   -0.14569E-08  3960   0.928E-04    0.572E-04
DAV:  22    -0.390348757309E+02    0.31032E-08   -0.35175E-09  3328   0.448E-04
   3 F= -.39034876E+02 E0= -.39034295E+02  d E =-.210732E+01  mag=     0.0008
       N       E                     dE             d eps       ncg     rms          rms(c)
DAV:   1    -0.390526352377E+02   -0.17760E-01   -0.11257E-01  6708   0.387E+00    0.154E+00
DAV:   2    -0.391605624126E+02   -0.10793E+00   -0.48578E-01  7540   0.828E+00    0.355E+00
DAV:   3    -0.390360209832E+02    0.12454E+00   -0.24688E-01  7440   0.662E+00    0.522E-01
DAV:   4    -0.390356177395E+02    0.40324E-03   -0.16636E-02  7692   0.155E+00    0.239E-01
DAV:   5    -0.390352843384E+02    0.33340E-03   -0.11703E-03  7984   0.390E-01    0.133E-01
DAV:   6    -0.390351511215E+02    0.13322E-03   -0.22514E-04  7376   0.160E-01    0.173E-02
DAV:   7    -0.390351485577E+02    0.25638E-05   -0.13341E-05  7084   0.250E-02    0.477E-03
DAV:   8    -0.390351481148E+02    0.44292E-06   -0.16989E-06  7088   0.120E-02    0.171E-03
DAV:   9    -0.390351479949E+02    0.11989E-06   -0.14174E-07  6780   0.362E-03    0.864E-04
DAV:  10    -0.390351479153E+02    0.79550E-07   -0.75695E-09  3636   0.849E-04    0.498E-04
DAV:  11    -0.390351478806E+02    0.34748E-07   -0.35497E-09  3372   0.574E-04    0.330E-04
DAV:  12    -0.390351478776E+02    0.29595E-08   -0.41987E-09  3312   0.595E-04
   4 F= -.39035148E+02 E0= -.39034579E+02  d E =-.210759E+01  mag=     0.0007
       N       E                     dE             d eps       ncg     rms          rms(c)
DAV:   1    -0.396803675425E+02   -0.64522E+00   -0.15467E+01  6872   0.582E+01    0.802E+00
DAV:   2    -0.408646388202E+02   -0.11843E+01   -0.94368E+00  7436   0.352E+01    0.118E+01
DAV:   3    -0.392909083873E+02    0.15737E+01   -0.38567E+00  7320   0.257E+01    0.239E+00
DAV:   4    -0.392408833281E+02    0.50025E-01   -0.30378E-01  8484   0.443E+00    0.179E+00
DAV:   5    -0.392321489627E+02    0.87344E-02   -0.91483E-02  7940   0.529E+00    0.131E+00
DAV:   6    -0.392220248638E+02    0.10124E-01   -0.35198E-02  7544   0.252E+00    0.303E-01
DAV:   7    -0.392213133221E+02    0.71154E-03   -0.29029E-03  7056   0.443E-01    0.134E-01
DAV:   8    -0.392212874982E+02    0.25824E-04   -0.52495E-04  8248   0.210E-01    0.415E-02
DAV:   9    -0.392212906490E+02   -0.31508E-05   -0.53704E-05  7240   0.716E-02    0.107E-02
DAV:  10    -0.392212896518E+02    0.99721E-06   -0.39420E-06  7140   0.196E-02    0.195E-03
DAV:  11    -0.392212894880E+02    0.16384E-06   -0.35426E-07  6836   0.514E-03    0.954E-04
DAV:  12    -0.392212894131E+02    0.74886E-07   -0.18345E-08  4268   0.129E-03    0.518E-04
DAV:  13    -0.392212893858E+02    0.27232E-07   -0.42403E-09  3468   0.595E-04    0.170E-04
DAV:  14    -0.392212893706E+02    0.15190E-07   -0.21027E-09  3384   0.339E-04    0.679E-05
DAV:  15    -0.392212893714E+02   -0.75670E-09   -0.58325E-10  3360   0.247E-04
   5 F= -.39221289E+02 E0= -.39220804E+02  d E =-.186141E+00  mag=     0.0000
       N       E                     dE             d eps       ncg     rms          rms(c)
DAV:   1    -0.420052887065E+02   -0.27840E+01   -0.79641E+01  7252   0.128E+02    0.191E+01
DAV:   2    -0.475514557084E+02   -0.55462E+01   -0.49010E+01  7312   0.831E+01    0.236E+01
DAV:   3    -0.397414078339E+02    0.78100E+01   -0.19592E+01  7216   0.599E+01    0.478E+00
DAV:   4    -0.396257575859E+02    0.11565E+00   -0.21610E+00  8424   0.104E+01    0.425E+00
DAV:   5    -0.395645315171E+02    0.61226E-01   -0.58291E-01  7816   0.114E+01    0.344E+00
DAV:   6    -0.394812168775E+02    0.83315E-01   -0.22900E-01  8196   0.777E+00    0.855E-01
DAV:   7    -0.394749799805E+02    0.62369E-02   -0.25282E-02  7856   0.159E+00    0.208E-01
DAV:   8    -0.394751645286E+02   -0.18455E-03   -0.31101E-03  7480   0.450E-01    0.722E-02
DAV:   9    -0.394752078276E+02   -0.43299E-04   -0.25726E-04  7440   0.207E-01    0.458E-02
DAV:  10    -0.394751961583E+02    0.11669E-04   -0.88158E-05  7304   0.126E-01    0.164E-02
DAV:  11    -0.394751927158E+02    0.34426E-05   -0.82405E-06  7204   0.358E-02    0.160E-03
DAV:  12    -0.394751926265E+02    0.89292E-07   -0.58139E-07  7256   0.548E-03    0.513E-04
DAV:  13    -0.394751925950E+02    0.31438E-07   -0.22461E-08  5124   0.108E-03    0.261E-04
DAV:  14    -0.394751925691E+02    0.25882E-07   -0.28521E-09  3476   0.454E-04    0.123E-04
DAV:  15    -0.394751925624E+02    0.66957E-08   -0.12990E-09  3360   0.442E-04
   6 F= -.39475193E+02 E0= -.39474610E+02  d E =-.440045E+00  mag=    -0.0000
       N       E                     dE             d eps       ncg     rms          rms(c)
DAV:   1    -0.522717097126E+02   -0.12797E+02   -0.35843E+02  7908   0.258E+02    0.428E+01
DAV:   2    -0.707045736846E+02   -0.18433E+02   -0.20181E+02  6980   0.183E+02    0.407E+01
DAV:   3    -0.405741945342E+02    0.30130E+02   -0.82690E+01  7192   0.116E+02    0.106E+01
DAV:   4    -0.421124079835E+02   -0.15382E+01   -0.15940E+01  8624   0.530E+01    0.240E+01
DAV:   5    -0.400034249632E+02    0.21090E+01   -0.77354E+00  8224   0.336E+01    0.108E+01
DAV:   6    -0.391054171376E+02    0.89801E+00   -0.41807E+00  7712   0.233E+01    0.323E+00
DAV:   7    -0.389903106018E+02    0.11511E+00   -0.31773E-01  7760   0.661E+00    0.926E-01
DAV:   8    -0.389849038499E+02    0.54068E-02   -0.31583E-02  8560   0.159E+00    0.255E-01
DAV:   9    -0.389848752604E+02    0.28590E-04   -0.40615E-03  7172   0.489E-01    0.137E-01
DAV:  10    -0.389848029330E+02    0.72327E-04   -0.10503E-03  8704   0.369E-01    0.695E-02
DAV:  11    -0.389847535213E+02    0.49412E-04   -0.13591E-04  7748   0.124E-01    0.274E-02
DAV:  12    -0.389847464506E+02    0.70707E-05   -0.35002E-05  8780   0.614E-02    0.492E-03
DAV:  13    -0.389847462992E+02    0.15138E-06   -0.27312E-06  6768   0.150E-02    0.160E-03
DAV:  14    -0.389847462356E+02    0.63559E-07   -0.17125E-07  8120   0.361E-03    0.100E-03
DAV:  15    -0.389847462515E+02   -0.15863E-07   -0.35134E-08  5960   0.280E-03    0.115E-04
DAV:  16    -0.389847462522E+02   -0.68212E-09   -0.28406E-09  3436   0.427E-04
   7 F= -.38984746E+02 E0= -.38984759E+02  d E =0.504016E-01  mag=     0.0000
       N       E                     dE             d eps       ncg     rms          rms(c)
DAV:   1    -0.509616859099E+02   -0.11977E+02   -0.31695E+02  7148   0.253E+02    0.322E+01
DAV:   2    -0.614911292870E+02   -0.10529E+02   -0.17630E+02  7804   0.161E+02    0.487E+01
DAV:   3    -0.420602990753E+02    0.19431E+02   -0.64524E+01  8036   0.899E+01    0.144E+01
DAV:   4    -0.413217912370E+02    0.73851E+00   -0.10445E+01  7972   0.540E+01    0.162E+01
DAV:   5    -0.395560854167E+02    0.17657E+01   -0.62698E+00  7644   0.354E+01    0.289E+00
DAV:   6    -0.395050571426E+02    0.51028E-01   -0.46949E-01  7432   0.791E+00    0.103E+00
DAV:   7    -0.394969394459E+02    0.81177E-02   -0.56087E-02  8212   0.191E+00    0.352E-01
DAV:   8    -0.394960883090E+02    0.85114E-03   -0.51469E-03  7180   0.614E-01    0.886E-02
DAV:   9    -0.394961379623E+02   -0.49653E-04   -0.41236E-04  7448   0.192E-01    0.394E-02
DAV:  10    -0.394961332791E+02    0.46832E-05   -0.69450E-05  7932   0.117E-01    0.122E-02
DAV:  11    -0.394961335105E+02   -0.23133E-06   -0.90090E-06  7160   0.284E-02    0.257E-03
DAV:  12    -0.394961332789E+02    0.23158E-06   -0.68527E-07  6792   0.789E-03    0.197E-03
DAV:  13    -0.394961332504E+02    0.28449E-07   -0.17445E-07  7272   0.505E-03    0.772E-04
DAV:  14    -0.394961332841E+02   -0.33686E-07   -0.12495E-08  3948   0.121E-03    0.263E-04
DAV:  15    -0.394961332803E+02    0.38581E-08   -0.79024E-09  3468   0.898E-04
   8 F= -.39496133E+02 E0= -.39496260E+02  d E =-.460985E+00  mag=     0.0000
       N       E                     dE             d eps       ncg     rms          rms(c)
DAV:   1    -0.396765012598E+02   -0.18037E+00   -0.51190E+00  7348   0.325E+01    0.458E+00
DAV:   2    -0.399790558473E+02   -0.30255E+00   -0.29121E+00  7208   0.212E+01    0.629E+00
DAV:   3    -0.395275516978E+02    0.45150E+00   -0.11929E+00  7352   0.156E+01    0.148E+00
DAV:   4    -0.395523037725E+02   -0.24752E-01   -0.20122E-01  8312   0.768E+00    0.242E+00
DAV:   5    -0.395042720423E+02    0.48032E-01   -0.10004E-01  7824   0.638E+00    0.319E-01
DAV:   6    -0.395044582117E+02   -0.18617E-03   -0.13178E-02  6860   0.949E-01    0.843E-02
DAV:   7    -0.395044535843E+02    0.46274E-05   -0.66220E-04  8160   0.236E-01    0.539E-02
DAV:   8    -0.395044506993E+02    0.28851E-05   -0.62416E-05  7544   0.103E-01    0.167E-02
DAV:   9    -0.395044470061E+02    0.36931E-05   -0.21364E-05  7804   0.382E-02    0.455E-03
DAV:  10    -0.395044468249E+02    0.18123E-06   -0.14390E-06  7036   0.118E-02    0.980E-04
DAV:  11    -0.395044467701E+02    0.54804E-07   -0.55446E-08  6296   0.196E-03    0.519E-04
DAV:  12    -0.395044467396E+02    0.30455E-07   -0.11788E-08  3972   0.866E-04    0.206E-04
DAV:  13    -0.395044467261E+02    0.13564E-07   -0.25816E-09  3300   0.497E-04    0.572E-05
DAV:  14    -0.395044467235E+02    0.26048E-08   -0.77917E-10  3228   0.241E-04
   9 F= -.39504447E+02 E0= -.39504301E+02  d E =-.469299E+00  mag=    -0.0000
       N       E                     dE             d eps       ncg     rms          rms(c)
DAV:   1    -0.391870774819E+02    0.31737E+00   -0.13791E+02  7408   0.284E+02    0.189E+01
DAV:   2    -0.493085207712E+02   -0.10121E+02   -0.99778E+01  7224   0.106E+02    0.335E+01
DAV:   3    -0.402329694796E+02    0.90756E+01   -0.28209E+01  7656   0.626E+01    0.855E+00
DAV:   4    -0.399306051444E+02    0.30236E+00   -0.26412E+00  7792   0.242E+01    0.651E+00
DAV:   5    -0.395880905711E+02    0.34251E+00   -0.10548E+00  7784   0.163E+01    0.200E+00
DAV:   6    -0.395514119305E+02    0.36679E-01   -0.15005E-01  8664   0.596E+00    0.599E-01
DAV:   7    -0.395499393795E+02    0.14726E-02   -0.23057E-02  7488   0.168E+00    0.279E-01
DAV:   8    -0.395495682419E+02    0.37114E-03   -0.19689E-03  7392   0.476E-01    0.997E-02
DAV:   9    -0.395495472603E+02    0.20982E-04   -0.31834E-04  7224   0.176E-01    0.130E-02
DAV:  10    -0.395495497687E+02   -0.25084E-05   -0.29190E-05  6952   0.509E-02    0.920E-03
DAV:  11    -0.395495500166E+02   -0.24788E-06   -0.46319E-06  7352   0.250E-02    0.354E-03
DAV:  12    -0.395495501251E+02   -0.10851E-06   -0.39091E-07  7896   0.583E-03    0.119E-03
DAV:  13    -0.395495501354E+02   -0.10230E-07   -0.80888E-08  7512   0.315E-03    0.527E-04
DAV:  14    -0.395495501380E+02   -0.26157E-08   -0.12642E-08  3496   0.195E-03
  10 F= -.39549550E+02 E0= -.39548812E+02  d E =-.451034E-01  mag=     0.0000
       N       E                     dE             d eps       ncg     rms          rms(c)
DAV:   1    -0.395694467603E+02   -0.19897E-01   -0.14379E+01  7656   0.106E+02    0.782E+00
DAV:   2    -0.414135962674E+02   -0.18441E+01   -0.14166E+01  7424   0.419E+01    0.120E+01
DAV:   3    -0.395790417378E+02    0.18346E+01   -0.46035E+00  7096   0.287E+01    0.135E+00
DAV:   4    -0.395859349633E+02   -0.68932E-02   -0.24949E-01  8208   0.480E+00    0.153E+00
DAV:   5    -0.395739064473E+02    0.12029E-01   -0.62416E-02  7888   0.460E+00    0.925E-01
DAV:   6    -0.395672377086E+02    0.66687E-02   -0.20476E-02  7672   0.206E+00    0.180E-01
DAV:   7    -0.395669876881E+02    0.25002E-03   -0.30214E-03  8160   0.565E-01    0.990E-02
DAV:   8    -0.395669334199E+02    0.54268E-04   -0.32783E-04  7152   0.203E-01    0.220E-02
DAV:   9    -0.395669332954E+02    0.12442E-06   -0.23098E-05  6800   0.337E-02    0.668E-03
DAV:  10    -0.395669327594E+02    0.53605E-06   -0.19115E-06  8120   0.118E-02    0.168E-03
DAV:  11    -0.395669324754E+02    0.28402E-06   -0.42958E-07  7464   0.570E-03    0.181E-03
DAV:  12    -0.395669323575E+02    0.11784E-06   -0.89995E-08  7224   0.371E-03    0.187E-04
DAV:  13    -0.395669323509E+02    0.66520E-08   -0.76375E-09  3488   0.689E-04
  11 F= -.39566932E+02 E0= -.39566801E+02  d E =-.624856E-01  mag=    -0.0000
       N       E                     dE             d eps       ncg     rms          rms(c)
DAV:   1    -0.367249818403E+02    0.28420E+01   -0.16425E+02 10232   0.336E+02    0.933E+00
DAV:   2    -0.424449144616E+02   -0.57199E+01   -0.49760E+01  7224   0.653E+01    0.148E+01
DAV:   3    -0.396425063431E+02    0.28024E+01   -0.69373E+00  7080   0.381E+01    0.183E+00
DAV:   4    -0.396812367823E+02   -0.38730E-01   -0.70005E-01  8000   0.978E+00    0.230E+00
DAV:   5    -0.396449263980E+02    0.36310E-01   -0.10613E-01  7952   0.565E+00    0.102E+00
DAV:   6    -0.396364727235E+02    0.84537E-02   -0.41877E-02  7288   0.227E+00    0.378E-01
DAV:   7    -0.396350121076E+02    0.14606E-02   -0.71119E-03  7200   0.106E+00    0.118E-01
DAV:   8    -0.396349430571E+02    0.69051E-04   -0.54311E-04  8208   0.322E-01    0.452E-02
DAV:   9    -0.396349437623E+02   -0.70518E-06   -0.10776E-04  6768   0.890E-02    0.143E-02
DAV:  10    -0.396349410223E+02    0.27399E-05   -0.16052E-05  7272   0.414E-02    0.526E-03
DAV:  11    -0.396349406793E+02    0.34307E-06   -0.11884E-06  6768   0.106E-02    0.256E-03
DAV:  12    -0.396349405189E+02    0.16039E-06   -0.31678E-07  7672   0.637E-03    0.606E-04
DAV:  13    -0.396349405051E+02    0.13792E-07   -0.21900E-08  4280   0.155E-03    0.115E-04
DAV:  14    -0.396349404970E+02    0.80672E-08   -0.28475E-09  3440   0.385E-04
  12 F= -.39634940E+02 E0= -.39634743E+02  d E =-.680081E-01  mag=    -0.0000
       N       E                     dE             d eps       ncg     rms          rms(c)
DAV:   1    -0.383396160882E+02    0.12953E+01   -0.40231E+01  8648   0.188E+02    0.455E+00
DAV:   2    -0.401522920767E+02   -0.18127E+01   -0.16811E+01  7072   0.318E+01    0.675E+00
DAV:   3    -0.396513618243E+02    0.50093E+00   -0.17511E+00  7256   0.178E+01    0.141E+00
DAV:   4    -0.396570226724E+02   -0.56608E-02   -0.17230E-01  8208   0.605E+00    0.136E+00
DAV:   5    -0.396447451695E+02    0.12278E-01   -0.24246E-02  7872   0.286E+00    0.617E-01
DAV:   6    -0.396415265505E+02    0.32186E-02   -0.11271E-02  6936   0.130E+00    0.178E-01
DAV:   7    -0.396413103138E+02    0.21624E-03   -0.15550E-03  8344   0.397E-01    0.463E-02
DAV:   8    -0.396413002639E+02    0.10050E-04   -0.19206E-04  7176   0.134E-01    0.250E-02
DAV:   9    -0.396413002777E+02   -0.13797E-07   -0.11652E-05  7368   0.285E-02    0.685E-03
DAV:  10    -0.396412996633E+02    0.61438E-06   -0.20122E-06  8104   0.141E-02    0.133E-03
DAV:  11    -0.396412995073E+02    0.15601E-06   -0.13974E-07  6728   0.285E-03    0.628E-04
DAV:  12    -0.396412994479E+02    0.59414E-07   -0.22645E-08  5048   0.161E-03    0.989E-05
DAV:  13    -0.396412994419E+02    0.59536E-08   -0.28710E-09  3456   0.528E-04
  13 F= -.39641299E+02 E0= -.39641365E+02  d E =-.743671E-01  mag=     0.0000
       N       E                     dE             d eps       ncg     rms          rms(c)
DAV:   1    -0.395651612364E+02    0.76138E-01   -0.22849E+00  8880   0.450E+01    0.101E+00
DAV:   2    -0.396650673743E+02   -0.99906E-01   -0.95686E-01  7400   0.716E+00    0.149E+00
DAV:   3    -0.396431114856E+02    0.21956E-01   -0.91510E-02  7256   0.380E+00    0.366E-01
DAV:   4    -0.396429293616E+02    0.18212E-03   -0.52873E-03  8824   0.104E+00    0.302E-01
DAV:   5    -0.396424018176E+02    0.52754E-03   -0.99922E-04  7784   0.629E-01    0.186E-01
DAV:   6    -0.396420883004E+02    0.31352E-03   -0.83482E-04  7408   0.439E-01    0.503E-02
DAV:   7    -0.396420766883E+02    0.11612E-04   -0.16032E-04  7176   0.144E-01    0.108E-02
DAV:   8    -0.396420767816E+02   -0.93243E-07   -0.17356E-05  7656   0.455E-02    0.874E-03
DAV:   9    -0.396420767003E+02    0.81271E-07   -0.12910E-06  7080   0.142E-02    0.191E-03
DAV:  10    -0.396420767801E+02   -0.79799E-07   -0.18265E-07  7804   0.515E-03    0.554E-04
DAV:  11    -0.396420768128E+02   -0.32705E-07   -0.11373E-08  3464   0.123E-03    0.113E-04
DAV:  12    -0.396420768208E+02   -0.80399E-08   -0.24349E-09  3348   0.532E-04
  14 F= -.39642077E+02 E0= -.39642106E+02  d E =-.751445E-01  mag=     0.0000
       N       E                     dE             d eps       ncg     rms          rms(c)
DAV:   1    -0.392652088560E+02    0.37687E+00   -0.11167E+01  8136   0.982E+01    0.173E+00
DAV:   2    -0.396708505839E+02   -0.40564E+00   -0.43302E+00  6352   0.135E+01    0.127E+00
DAV:   3    -0.396837125042E+02   -0.12862E-01   -0.18887E-01  8744   0.670E+00    0.158E+00
DAV:   4    -0.396651526576E+02    0.18560E-01   -0.37320E-02  7960   0.385E+00    0.507E-01
DAV:   5    -0.396647021208E+02    0.45054E-03   -0.16550E-02  7800   0.162E+00    0.473E-01
DAV:   6    -0.396623359362E+02    0.23662E-02   -0.60799E-03  7712   0.102E+00    0.613E-02
DAV:   7    -0.396623628249E+02   -0.26889E-04   -0.44033E-04  6688   0.180E-01    0.280E-02
DAV:   8    -0.396623694080E+02   -0.65832E-05   -0.30346E-05  7956   0.531E-02    0.847E-03
DAV:   9    -0.396623693853E+02    0.22674E-07   -0.39265E-06  7188   0.215E-02    0.247E-03
DAV:  10    -0.396623693252E+02    0.60116E-07   -0.23124E-07  7520   0.480E-03    0.647E-04
DAV:  11    -0.396623693073E+02    0.17923E-07   -0.15520E-08  4028   0.106E-03    0.148E-04
DAV:  12    -0.396623693097E+02   -0.23920E-08   -0.31533E-09  3432   0.720E-04
  15 F= -.39662369E+02 E0= -.39662007E+02  d E =-.202925E-01  mag=    -0.0000
       N       E                     dE             d eps       ncg     rms          rms(c)
DAV:   1    -0.395335711001E+02    0.12880E+00   -0.37572E+00  8084   0.564E+01    0.984E-01
DAV:   2    -0.396707393366E+02   -0.13717E+00   -0.14537E+00  6384   0.769E+00    0.824E-01
DAV:   3    -0.396728161102E+02   -0.20768E-02   -0.59131E-02  8404   0.389E+00    0.821E-01
DAV:   4    -0.396675121213E+02    0.53040E-02   -0.10836E-02  8088   0.210E+00    0.311E-01
DAV:   5    -0.396671745762E+02    0.33755E-03   -0.55167E-03  7760   0.949E-01    0.265E-01
DAV:   6    -0.396664207262E+02    0.75385E-03   -0.19093E-03  7804   0.587E-01    0.313E-02
DAV:   7    -0.396664326600E+02   -0.11934E-04   -0.15653E-04  6640   0.112E-01    0.157E-02
DAV:   8    -0.396664349470E+02   -0.22870E-05   -0.99894E-06  7924   0.320E-02    0.533E-03
DAV:   9    -0.396664348072E+02    0.13979E-06   -0.13813E-06  7404   0.130E-02    0.134E-03
DAV:  10    -0.396664347611E+02    0.46188E-07   -0.88193E-08  6892   0.291E-03    0.402E-04
DAV:  11    -0.396664347496E+02    0.11472E-07   -0.63604E-09  3496   0.723E-04    0.891E-05
DAV:  12    -0.396664347520E+02   -0.23774E-08   -0.14923E-09  3316   0.455E-04
  16 F= -.39666435E+02 E0= -.39665817E+02  d E =-.243579E-01  mag=     0.0000
       N       E                     dE             d eps       ncg     rms          rms(c)
DAV:   1    -0.398824601317E+02   -0.21603E+00   -0.10467E+01  7144   0.790E+01    0.728E+00
DAV:   2    -0.412209809590E+02   -0.13385E+01   -0.11213E+01  7208   0.393E+01    0.124E+01
DAV:   3    -0.397163714791E+02    0.15046E+01   -0.45845E+00  7216   0.254E+01    0.210E+00
DAV:   4    -0.396894529196E+02    0.26919E-01   -0.20346E-01  7632   0.546E+00    0.111E+00
DAV:   5    -0.396849250994E+02    0.45278E-02   -0.61321E-02  7456   0.481E+00    0.768E-01
DAV:   6    -0.396799274249E+02    0.49977E-02   -0.12693E-02  7616   0.204E+00    0.104E-01
DAV:   7    -0.396799881728E+02   -0.60748E-04   -0.16168E-03  6960   0.296E-01    0.670E-02
DAV:   8    -0.396799751159E+02    0.13057E-04   -0.99721E-05  7552   0.127E-01    0.246E-02
DAV:   9    -0.396799783101E+02   -0.31942E-05   -0.14959E-05  8656   0.444E-02    0.456E-03
DAV:  10    -0.396799783768E+02   -0.66726E-07   -0.16031E-06  7296   0.116E-02    0.178E-03
DAV:  11    -0.396799785865E+02   -0.20962E-06   -0.15223E-07  7704   0.356E-03    0.818E-04
DAV:  12    -0.396799785826E+02    0.38344E-08   -0.33221E-08  5924   0.228E-03
  17 F= -.39679979E+02 E0= -.39680049E+02  d E =-.135438E-01  mag=     0.0000
       N       E                     dE             d eps       ncg     rms          rms(c)
DAV:   1    -0.396814863800E+02   -0.15078E-02   -0.66883E-02  7448   0.644E+00    0.605E-01
DAV:   2    -0.396908572513E+02   -0.93709E-02   -0.75339E-02  7256   0.323E+00    0.989E-01
DAV:   3    -0.396802718606E+02    0.10585E-01   -0.29603E-02  7144   0.222E+00    0.156E-01
DAV:   4    -0.396803216580E+02   -0.49797E-04   -0.17401E-03  8968   0.622E-01    0.164E-01
DAV:   5    -0.396800847093E+02    0.23695E-03   -0.57503E-04  7680   0.444E-01    0.283E-02
DAV:   6    -0.396800829533E+02    0.17560E-05   -0.70334E-05  7224   0.801E-02    0.725E-03
DAV:   7    -0.396800831876E+02   -0.23429E-06   -0.51335E-06  7552   0.202E-02    0.490E-03
DAV:   8    -0.396800832756E+02   -0.87997E-07   -0.58560E-07  7288   0.101E-02    0.119E-03
DAV:   9    -0.396800833866E+02   -0.11097E-06   -0.55418E-08  6112   0.246E-03    0.346E-04
DAV:  10    -0.396800834151E+02   -0.28582E-07   -0.51459E-09  3312   0.955E-04    0.878E-05
DAV:  11    -0.396800834274E+02   -0.12271E-07   -0.15426E-09  3248   0.380E-04    0.435E-05
DAV:  12    -0.396800834290E+02   -0.16007E-08   -0.35201E-10  3192   0.179E-04
  18 F= -.39680083E+02 E0= -.39680193E+02  d E =-.136487E-01  mag=    -0.0000
       N       E                     dE             d eps       ncg     rms          rms(c)
DAV:   1    -0.394891330122E+02    0.19095E+00   -0.70125E+00  7824   0.723E+01    0.245E+00
DAV:   2    -0.397392570072E+02   -0.25012E+00   -0.30054E+00  6864   0.129E+01    0.212E+00
DAV:   3    -0.397068373674E+02    0.32420E-01   -0.23994E-01  7488   0.663E+00    0.132E+00
DAV:   4    -0.397000868900E+02    0.67505E-02   -0.83172E-02  7720   0.517E+00    0.134E+00
DAV:   5    -0.396856378537E+02    0.14449E-01   -0.46513E-02  7712   0.392E+00    0.254E-01
DAV:   6    -0.396853305203E+02    0.30733E-03   -0.52388E-03  7592   0.708E-01    0.711E-02
DAV:   7    -0.396853255723E+02    0.49480E-05   -0.44627E-04  8032   0.200E-01    0.376E-02
DAV:   8    -0.396853317140E+02   -0.61417E-05   -0.43242E-05  7032   0.692E-02    0.724E-03
DAV:   9    -0.396853309847E+02    0.72928E-06   -0.48724E-06  7960   0.216E-02    0.339E-03
DAV:  10    -0.396853308736E+02    0.11107E-06   -0.46095E-07  6808   0.730E-03    0.855E-04
DAV:  11    -0.396853308717E+02    0.19227E-08   -0.35167E-08  5360   0.224E-03
  19 F= -.39685331E+02 E0= -.39685668E+02  d E =-.524744E-02  mag=    -0.0000
       N       E                     dE             d eps       ncg     rms          rms(c)
DAV:   1    -0.396792917030E+02    0.60392E-02   -0.23589E-01  7840   0.132E+01    0.442E-01
DAV:   2    -0.396873822015E+02   -0.80905E-02   -0.98520E-02  6832   0.234E+00    0.380E-01
DAV:   3    -0.396863676739E+02    0.10145E-02   -0.76592E-03  7328   0.113E+00    0.239E-01
DAV:   4    -0.396859643018E+02    0.40337E-03   -0.22602E-03  7688   0.839E-01    0.203E-01
DAV:   5    -0.396856614077E+02    0.30289E-03   -0.13329E-03  7712   0.701E-01    0.662E-02
DAV:   6    -0.396856286411E+02    0.32767E-04   -0.17499E-04  8272   0.186E-01    0.108E-02
DAV:   7    -0.396856289225E+02   -0.28140E-06   -0.18010E-05  7136   0.378E-02    0.661E-03
DAV:   8    -0.396856289129E+02    0.96297E-08   -0.11500E-06  7296   0.111E-02    0.162E-03
DAV:   9    -0.396856289388E+02   -0.25886E-07   -0.19873E-07  8000   0.426E-03    0.695E-04
DAV:  10    -0.396856289518E+02   -0.12988E-07   -0.14553E-08  3928   0.139E-03    0.144E-04
DAV:  11    -0.396856289569E+02   -0.50950E-08   -0.27851E-09  3304   0.405E-04
  20 F= -.39685629E+02 E0= -.39685985E+02  d E =-.554553E-02  mag=    -0.0000
       N       E                     dE             d eps       ncg     rms          rms(c)
DAV:   1    -0.397729845306E+02   -0.87356E-01   -0.14332E+00  6960   0.249E+01    0.347E+00
DAV:   2    -0.400560886834E+02   -0.28310E+00   -0.22115E+00  7176   0.181E+01    0.560E+00
DAV:   3    -0.396910040594E+02    0.36508E+00   -0.95442E-01  7120   0.128E+01    0.609E-01
DAV:   4    -0.396950587552E+02   -0.40547E-02   -0.54153E-02  8424   0.284E+00    0.864E-01
DAV:   5    -0.396891982169E+02    0.58605E-02   -0.13770E-02  7736   0.218E+00    0.230E-01
DAV:   6    -0.396888937011E+02    0.30452E-03   -0.27228E-03  7168   0.494E-01    0.416E-02
DAV:   7    -0.396888825122E+02    0.11189E-04   -0.12393E-04  7440   0.116E-01    0.202E-02
DAV:   8    -0.396888807798E+02    0.17324E-05   -0.14851E-05  7048   0.337E-02    0.502E-03
DAV:   9    -0.396888802705E+02    0.50926E-06   -0.17593E-06  7848   0.134E-02    0.191E-03
DAV:  10    -0.396888799530E+02    0.31756E-06   -0.11079E-07  6816   0.298E-03    0.885E-04
DAV:  11    -0.396888799088E+02    0.44143E-07   -0.21460E-08  4432   0.170E-03    0.218E-04
DAV:  12    -0.396888799000E+02    0.88676E-08   -0.39649E-09  3312   0.520E-04
  21 F= -.39688880E+02 E0= -.39689351E+02  d E =-.325094E-02  mag=    -0.0000
       N       E                     dE             d eps       ncg     rms          rms(c)
DAV:   1    -0.396891988043E+02   -0.31890E-03   -0.52556E-03  6864   0.149E+00    0.206E-01
DAV:   2    -0.396901700795E+02   -0.97128E-03   -0.77407E-03  7200   0.108E+00    0.339E-01
DAV:   3    -0.396889051510E+02    0.12649E-02   -0.34287E-03  7136   0.746E-01    0.407E-02
DAV:   4    -0.396889132287E+02   -0.80777E-05   -0.16628E-04  8480   0.166E-01    0.489E-02
DAV:   5    -0.396888940821E+02    0.19147E-04   -0.48222E-05  7832   0.133E-01    0.101E-02
DAV:   6    -0.396888937950E+02    0.28704E-06   -0.73026E-06  6800   0.234E-02    0.231E-03
DAV:   7    -0.396888938088E+02   -0.13739E-07   -0.36259E-07  7736   0.618E-03    0.130E-03
DAV:   8    -0.396888938872E+02   -0.78400E-07   -0.44666E-08  6088   0.192E-03    0.276E-04
DAV:   9    -0.396888939064E+02   -0.19274E-07   -0.53538E-09  3304   0.799E-04    0.108E-04
DAV:  10    -0.396888939232E+02   -0.16764E-07   -0.11264E-09  3224   0.295E-04    0.379E-05
DAV:  11    -0.396888939258E+02   -0.25702E-08   -0.19409E-10  3152   0.101E-04
  22 F= -.39688894E+02 E0= -.39689354E+02  d E =-.326497E-02  mag=     0.0000
       N       E                     dE             d eps       ncg     rms          rms(c)
DAV:   1    -0.397046743087E+02   -0.15780E-01   -0.57927E-01  7352   0.183E+01    0.181E+00
DAV:   2    -0.397841503951E+02   -0.79476E-01   -0.65782E-01  7304   0.969E+00    0.293E+00
DAV:   3    -0.396916868541E+02    0.92464E-01   -0.26316E-01  7176   0.654E+00    0.449E-01
DAV:   4    -0.396921081873E+02   -0.42133E-03   -0.14871E-02  8792   0.176E+00    0.490E-01
DAV:   5    -0.396900523335E+02    0.20559E-02   -0.55050E-03  7600   0.135E+00    0.923E-02
DAV:   6    -0.396900093787E+02    0.42955E-04   -0.61591E-04  8016   0.266E-01    0.213E-02
DAV:   7    -0.396900083926E+02    0.98613E-06   -0.46215E-05  7248   0.519E-02    0.137E-02
DAV:   8    -0.396900079463E+02    0.44623E-06   -0.37040E-06  7984   0.247E-02    0.414E-03
DAV:   9    -0.396900082896E+02   -0.34323E-06   -0.53755E-07  7608   0.859E-03    0.747E-04
DAV:  10    -0.396900083838E+02   -0.94196E-07   -0.43913E-08  5968   0.228E-03    0.209E-04
DAV:  11    -0.396900084265E+02   -0.42732E-07   -0.29570E-09  3360   0.504E-04    0.398E-05
DAV:  12    -0.396900084266E+02   -0.16553E-09   -0.47439E-10  3280   0.186E-04
  23 F= -.39690008E+02 E0= -.39690624E+02  d E =-.111450E-02  mag=     0.0000
       N       E                     dE             d eps       ncg     rms          rms(c)
DAV:   1    -0.396900247747E+02   -0.16348E-04   -0.60057E-04  7352   0.589E-01    0.588E-02
DAV:   2    -0.396901113804E+02   -0.86606E-04   -0.69507E-04  7240   0.315E-01    0.941E-02
DAV:   3    -0.396900115949E+02    0.99786E-04   -0.27157E-04  7080   0.214E-01    0.135E-02
DAV:   4    -0.396900120436E+02   -0.44875E-06   -0.15200E-05  8824   0.546E-02    0.155E-02
DAV:   5    -0.396900098975E+02    0.21462E-05   -0.56764E-06  7632   0.439E-02    0.339E-03
DAV:   6    -0.396900097939E+02    0.10354E-06   -0.66661E-07  7952   0.949E-03    0.703E-04
DAV:   7    -0.396900097725E+02    0.21439E-07   -0.52436E-08  6216   0.171E-03    0.427E-04
DAV:   8    -0.396900097598E+02    0.12669E-07   -0.33942E-09  3288   0.866E-04    0.138E-04
DAV:   9    -0.396900097503E+02    0.95333E-08   -0.12144E-09  3160   0.342E-04
  24 F= -.39690010E+02 E0= -.39690617E+02  d E =-.111582E-02  mag=    -0.0000
       N       E                     dE             d eps       ncg     rms          rms(c)
DAV:   1    -0.396885250781E+02    0.14847E-02   -0.51494E-02  8544   0.648E+00    0.196E-01
DAV:   2    -0.396908113775E+02   -0.22863E-02   -0.23506E-02  7056   0.120E+00    0.242E-01
DAV:   3    -0.396902397988E+02    0.57158E-03   -0.26263E-03  7616   0.672E-01    0.820E-02
DAV:   4    -0.396902159367E+02    0.23862E-04   -0.28301E-04  7928   0.302E-01    0.812E-02
DAV:   5    -0.396901632686E+02    0.52668E-04   -0.18121E-04  7728   0.266E-01    0.279E-02
DAV:   6    -0.396901564626E+02    0.68060E-05   -0.31590E-05  8968   0.765E-02    0.410E-03
DAV:   7    -0.396901567287E+02   -0.26617E-06   -0.38729E-06  6728   0.159E-02    0.252E-03
DAV:   8    -0.396901567627E+02   -0.33973E-07   -0.17131E-07  7376   0.542E-03    0.971E-04
DAV:   9    -0.396901568025E+02   -0.39836E-07   -0.23453E-08  4672   0.151E-03    0.189E-04
DAV:  10    -0.396901568124E+02   -0.98626E-08   -0.30762E-09  3232   0.698E-04
  25 F= -.39690157E+02 E0= -.39690713E+02  d E =-.147062E-03  mag=    -0.0000
       N       E                     dE             d eps       ncg     rms          rms(c)
DAV:   1    -0.396887647042E+02    0.13921E-02   -0.45460E-02  8544   0.608E+00    0.184E-01
DAV:   2    -0.396907794626E+02   -0.20148E-02   -0.20734E-02  7040   0.113E+00    0.230E-01
DAV:   3    -0.396902767649E+02    0.50270E-03   -0.23227E-03  7584   0.628E-01    0.761E-02
DAV:   4    -0.396902484264E+02    0.28338E-04   -0.22369E-04  7936   0.262E-01    0.700E-02
DAV:   5    -0.396902125841E+02    0.35842E-04   -0.15486E-04  7776   0.244E-01    0.302E-02
DAV:   6    -0.396902046650E+02    0.79191E-05   -0.28785E-05  9064   0.827E-02    0.379E-03
DAV:   7    -0.396902049650E+02   -0.30004E-06   -0.38935E-06  6656   0.151E-02    0.247E-03
DAV:   8    -0.396902049846E+02   -0.19598E-07   -0.16647E-07  7288   0.546E-03    0.951E-04
DAV:   9    -0.396902050255E+02   -0.40873E-07   -0.22454E-08  4688   0.139E-03    0.175E-04
DAV:  10    -0.396902050353E+02   -0.98607E-08   -0.29258E-09  3240   0.635E-04
  26 F= -.39690205E+02 E0= -.39690719E+02  d E =-.195285E-03  mag=    -0.0000
       N       E                     dE             d eps       ncg     rms          rms(c)
DAV:   1    -0.396882064032E+02    0.19986E-02   -0.81376E-02  7456   0.850E+00    0.420E-01
DAV:   2    -0.396949065188E+02   -0.67001E-02   -0.58263E-02  7568   0.238E+00    0.634E-01
DAV:   3    -0.396903660537E+02    0.45405E-02   -0.14148E-02  7072   0.154E+00    0.105E-01
DAV:   4    -0.396903380278E+02    0.28026E-04   -0.50626E-04  7000   0.187E-01    0.742E-02
DAV:   5    -0.396903253790E+02    0.12649E-04   -0.10764E-04  7376   0.188E-01    0.631E-02
DAV:   6    -0.396902911169E+02    0.34262E-04   -0.10566E-04  7632   0.175E-01    0.138E-02
DAV:   7    -0.396902891160E+02    0.20009E-05   -0.15229E-05  6984   0.361E-02    0.399E-03
DAV:   8    -0.396902888718E+02    0.24418E-06   -0.18614E-06  7408   0.132E-02    0.295E-03
DAV:   9    -0.396902887408E+02    0.13107E-06   -0.25331E-07  7176   0.625E-03    0.533E-04
DAV:  10    -0.396902887261E+02    0.14647E-07   -0.15291E-08  3640   0.153E-03    0.212E-04
DAV:  11    -0.396902887121E+02    0.14054E-07   -0.30323E-09  3240   0.650E-04    0.611E-05
DAV:  12    -0.396902887051E+02    0.69940E-08   -0.68232E-10  3208   0.268E-04
  27 F= -.39690289E+02 E0= -.39690783E+02  d E =-.836697E-04  mag=    -0.0000
       N       E                     dE             d eps       ncg     rms          rms(c)
DAV:   1    -0.396902991598E+02   -0.10448E-04   -0.13128E-03  7392   0.108E+00    0.532E-02
DAV:   2    -0.396904083959E+02   -0.10924E-03   -0.93892E-04  7592   0.304E-01    0.804E-02
DAV:   3    -0.396903349016E+02    0.73494E-04   -0.22728E-04  7080   0.195E-01    0.136E-02
DAV:   4    -0.396903343476E+02    0.55391E-06   -0.82157E-06  7080   0.250E-02    0.968E-03
DAV:   5    -0.396903340497E+02    0.29800E-06   -0.16094E-06  7352   0.231E-02    0.785E-03
DAV:   6    -0.396903333848E+02    0.66487E-06   -0.16687E-06  7360   0.213E-02    0.169E-03
DAV:   7    -0.396903333057E+02    0.79086E-07   -0.24734E-07  6912   0.470E-03    0.519E-04
DAV:   8    -0.396903332991E+02    0.65666E-08   -0.32495E-08  4824   0.181E-03
  28 F= -.39690333E+02 E0= -.39690825E+02  d E =-.128264E-03  mag=     0.0000
       N       E                     dE             d eps       ncg     rms          rms(c)
DAV:   1    -0.396887247226E+02    0.16086E-02   -0.49227E-02  7488   0.667E+00    0.269E-01
DAV:   2    -0.396921405920E+02   -0.34159E-02   -0.30934E-02  7640   0.160E+00    0.398E-01
DAV:   3    -0.396903929183E+02    0.17477E-02   -0.59666E-03  7056   0.997E-01    0.811E-02
DAV:   4    -0.396903725463E+02    0.20372E-04   -0.24148E-04  7760   0.169E-01    0.588E-02
DAV:   5    -0.396903603065E+02    0.12240E-04   -0.51692E-05  7416   0.132E-01    0.433E-02
DAV:   6    -0.396903442783E+02    0.16028E-04   -0.39793E-05  7400   0.103E-01    0.705E-03
DAV:   7    -0.396903447363E+02   -0.45803E-06   -0.75570E-06  7320   0.232E-02    0.207E-03
DAV:   8    -0.396903446311E+02    0.10523E-06   -0.40152E-07  6916   0.755E-03    0.126E-03
DAV:   9    -0.396903446690E+02   -0.37951E-07   -0.37103E-08  6496   0.150E-03    0.168E-04
DAV:  10    -0.396903446843E+02   -0.15283E-07   -0.29775E-09  3288   0.451E-04    0.614E-05
DAV:  11    -0.396903446921E+02   -0.78144E-08   -0.60545E-10  3224   0.197E-04
  29 F= -.39690345E+02 E0= -.39690829E+02  d E =-.113930E-04  mag=    -0.0000
       N       E                     dE             d eps       ncg     rms          rms(c)
DAV:   1    -0.396902839461E+02    0.60738E-04   -0.19016E-03  7488   0.131E+00    0.531E-02
DAV:   2    -0.396904148059E+02   -0.13086E-03   -0.11961E-03  7640   0.316E-01    0.783E-02
DAV:   3    -0.396903476578E+02    0.67148E-04   -0.23132E-04  7072   0.196E-01    0.158E-02
DAV:   4    -0.396903469643E+02    0.69347E-06   -0.92181E-06  7760   0.323E-02    0.114E-02
DAV:   5    -0.396903465827E+02    0.38161E-06   -0.20379E-06  7448   0.261E-02    0.860E-03
DAV:   6    -0.396903461080E+02    0.47476E-06   -0.15611E-06  7448   0.208E-02    0.140E-03
DAV:   7    -0.396903462049E+02   -0.96923E-07   -0.29868E-07  7376   0.462E-03    0.412E-04
DAV:   8    -0.396903461916E+02    0.13240E-07   -0.14075E-08  3520   0.150E-03    0.241E-04
DAV:   9    -0.396903461994E+02   -0.77271E-08   -0.27436E-09  3176   0.398E-04
  30 F= -.39690346E+02 E0= -.39690829E+02  d E =-.129002E-04  mag=    -0.0000
       N       E                     dE             d eps       ncg     rms          rms(c)
DAV:   1    -0.396903113355E+02    0.34856E-04   -0.12079E-03  7568   0.974E-01    0.329E-02
DAV:   2    -0.396903639510E+02   -0.52616E-04   -0.58271E-04  6944   0.190E-01    0.358E-02
DAV:   3    -0.396903533757E+02    0.10575E-04   -0.64316E-05  7648   0.104E-01    0.161E-02
DAV:   4    -0.396903514047E+02    0.19709E-05   -0.79024E-06  7656   0.495E-02    0.124E-02
DAV:   5    -0.396903505517E+02    0.85306E-06   -0.66118E-06  7680   0.495E-02    0.754E-03
DAV:   6    -0.396903501150E+02    0.43663E-06   -0.14137E-06  8896   0.203E-02    0.780E-04
DAV:   7    -0.396903501287E+02   -0.13701E-07   -0.18033E-07  6736   0.324E-03    0.522E-04
DAV:   8    -0.396903501273E+02    0.14552E-08   -0.65045E-09  3288   0.117E-03
  31 F= -.39690350E+02 E0= -.39690825E+02  d E =-.392792E-05  mag=    -0.0000
       N       E                     dE             d eps       ncg     rms          rms(c)
DAV:   1    -0.396903463220E+02    0.38067E-05   -0.13071E-04  7576   0.320E-01    0.108E-02
DAV:   2    -0.396903518475E+02   -0.55255E-05   -0.62925E-05  6944   0.628E-02    0.117E-02
DAV:   3    -0.396903508251E+02    0.10224E-05   -0.69150E-06  7624   0.342E-02    0.531E-03
DAV:   4    -0.396903506157E+02    0.20942E-06   -0.85052E-07  7672   0.162E-02    0.405E-03
DAV:   5    -0.396903505284E+02    0.87261E-07   -0.71349E-07  7688   0.163E-02    0.250E-03
DAV:   6    -0.396903504962E+02    0.32189E-07   -0.15179E-07  7808   0.671E-03    0.259E-04
DAV:   7    -0.396903504982E+02   -0.20173E-08   -0.20723E-08  4328   0.121E-03
  32 F= -.39690350E+02 E0= -.39690822E+02  d E =-.429888E-05  mag=     0.0000
