   6   6   0   0
  0.1170519E+02  0.4385131E-09  0.4385131E-09  0.4497840E-09  0.5000000E-15
  1.000000000000000E-004
  CAR 
 unknown system                          
     25.39316668    -58.64841684  301      8.51986292      1.00000000
    -58.648  0.0000E+00  0.0000E+00  0.0000E+00  0.0000E+00
    -58.368  0.0000E+00  0.0000E+00  0.0000E+00  0.0000E+00
    -58.088  0.0000E+00  0.0000E+00  0.0000E+00  0.0000E+00
    -57.808  0.0000E+00  0.0000E+00  0.0000E+00  0.0000E+00
    -57.528  0.0000E+00  0.0000E+00  0.0000E+00  0.0000E+00
    -57.248  0.0000E+00  0.0000E+00  0.0000E+00  0.0000E+00
    -56.968  0.0000E+00  0.0000E+00  0.0000E+00  0.0000E+00
    -56.687  0.0000E+00  0.0000E+00  0.0000E+00  0.0000E+00
    -56.407  0.0000E+00  0.0000E+00  0.0000E+00  0.0000E+00
    -56.127  0.0000E+00  0.0000E+00  0.0000E+00  0.0000E+00
    -55.847  0.0000E+00  0.0000E+00  0.0000E+00  0.0000E+00
    -55.567  0.0000E+00  0.0000E+00  0.0000E+00  0.0000E+00
    -55.287  0.0000E+00  0.0000E+00  0.0000E+00  0.0000E+00
    -55.007  0.0000E+00  0.0000E+00  0.0000E+00  0.0000E+00
    -54.726  0.6897E+02  0.6897E+02  0.5597E+01  0.5597E+01
    -54.446  0.0000E+00  0.0000E+00  0.1200E+02  0.1200E+02
    -54.166  0.0000E+00  0.0000E+00  0.1200E+02  0.1200E+02
    -53.886  0.0000E+00  0.0000E+00  0.1200E+02  0.1200E+02
    -53.606  0.0000E+00  0.0000E+00  0.1200E+02  0.1200E+02
    -53.326  0.0000E+00  0.0000E+00  0.1200E+02  0.1200E+02
    -53.046  0.0000E+00  0.0000E+00  0.1200E+02  0.1200E+02
    -52.766  0.0000E+00  0.0000E+00  0.1200E+02  0.1200E+02
    -52.485  0.0000E+00  0.0000E+00  0.1200E+02  0.1200E+02
    -52.205  0.0000E+00  0.0000E+00  0.1200E+02  0.1200E+02
    -51.925  0.0000E+00  0.0000E+00  0.1200E+02  0.1200E+02
    -51.645  0.0000E+00  0.0000E+00  0.1200E+02  0.1200E+02
    -51.365  0.0000E+00  0.0000E+00  0.1200E+02  0.1200E+02
    -51.085  0.0000E+00  0.0000E+00  0.1200E+02  0.1200E+02
    -50.805  0.0000E+00  0.0000E+00  0.1200E+02  0.1200E+02
    -50.524  0.0000E+00  0.0000E+00  0.1200E+02  0.1200E+02
    -50.244  0.0000E+00  0.0000E+00  0.1200E+02  0.1200E+02
    -49.964  0.0000E+00  0.0000E+00  0.1200E+02  0.1200E+02
    -49.684  0.0000E+00  0.0000E+00  0.1200E+02  0.1200E+02
    -49.404  0.0000E+00  0.0000E+00  0.1200E+02  0.1200E+02
    -49.124  0.0000E+00  0.0000E+00  0.1200E+02  0.1200E+02
    -48.844  0.0000E+00  0.0000E+00  0.1200E+02  0.1200E+02
    -48.563  0.0000E+00  0.0000E+00  0.1200E+02  0.1200E+02
    -48.283  0.0000E+00  0.0000E+00  0.1200E+02  0.1200E+02
    -48.003  0.0000E+00  0.0000E+00  0.1200E+02  0.1200E+02
    -47.723  0.0000E+00  0.0000E+00  0.1200E+02  0.1200E+02
    -47.443  0.0000E+00  0.0000E+00  0.1200E+02  0.1200E+02
    -47.163  0.0000E+00  0.0000E+00  0.1200E+02  0.1200E+02
    -46.883  0.0000E+00  0.0000E+00  0.1200E+02  0.1200E+02
    -46.602  0.0000E+00  0.0000E+00  0.1200E+02  0.1200E+02
    -46.322  0.0000E+00  0.0000E+00  0.1200E+02  0.1200E+02
    -46.042  0.0000E+00  0.0000E+00  0.1200E+02  0.1200E+02
    -45.762  0.0000E+00  0.0000E+00  0.1200E+02  0.1200E+02
    -45.482  0.0000E+00  0.0000E+00  0.1200E+02  0.1200E+02
    -45.202  0.0000E+00  0.0000E+00  0.1200E+02  0.1200E+02
    -44.922  0.0000E+00  0.0000E+00  0.1200E+02  0.1200E+02
    -44.641  0.0000E+00  0.0000E+00  0.1200E+02  0.1200E+02
    -44.361  0.0000E+00  0.0000E+00  0.1200E+02  0.1200E+02
    -44.081  0.0000E+00  0.0000E+00  0.1200E+02  0.1200E+02
    -43.801  0.0000E+00  0.0000E+00  0.1200E+02  0.1200E+02
    -43.521  0.0000E+00  0.0000E+00  0.1200E+02  0.1200E+02
    -43.241  0.0000E+00  0.0000E+00  0.1200E+02  0.1200E+02
    -42.961  0.0000E+00  0.0000E+00  0.1200E+02  0.1200E+02
    -42.681  0.0000E+00  0.0000E+00  0.1200E+02  0.1200E+02
    -42.400  0.0000E+00  0.0000E+00  0.1200E+02  0.1200E+02
    -42.120  0.0000E+00  0.0000E+00  0.1200E+02  0.1200E+02
    -41.840  0.0000E+00  0.0000E+00  0.1200E+02  0.1200E+02
    -41.560  0.0000E+00  0.0000E+00  0.1200E+02  0.1200E+02
    -41.280  0.0000E+00  0.0000E+00  0.1200E+02  0.1200E+02
    -41.000  0.0000E+00  0.0000E+00  0.1200E+02  0.1200E+02
    -40.720  0.0000E+00  0.0000E+00  0.1200E+02  0.1200E+02
    -40.439  0.0000E+00  0.0000E+00  0.1200E+02  0.1200E+02
    -40.159  0.0000E+00  0.0000E+00  0.1200E+02  0.1200E+02
    -39.879  0.0000E+00  0.0000E+00  0.1200E+02  0.1200E+02
    -39.599  0.0000E+00  0.0000E+00  0.1200E+02  0.1200E+02
    -39.319  0.0000E+00  0.0000E+00  0.1200E+02  0.1200E+02
    -39.039  0.0000E+00  0.0000E+00  0.1200E+02  0.1200E+02
    -38.759  0.0000E+00  0.0000E+00  0.1200E+02  0.1200E+02
    -38.478  0.0000E+00  0.0000E+00  0.1200E+02  0.1200E+02
    -38.198  0.0000E+00  0.0000E+00  0.1200E+02  0.1200E+02
    -37.918  0.0000E+00  0.0000E+00  0.1200E+02  0.1200E+02
    -37.638  0.0000E+00  0.0000E+00  0.1200E+02  0.1200E+02
    -37.358  0.0000E+00  0.0000E+00  0.1200E+02  0.1200E+02
    -37.078  0.0000E+00  0.0000E+00  0.1200E+02  0.1200E+02
    -36.798  0.0000E+00  0.0000E+00  0.1200E+02  0.1200E+02
    -36.517  0.0000E+00  0.0000E+00  0.1200E+02  0.1200E+02
    -36.237  0.0000E+00  0.0000E+00  0.1200E+02  0.1200E+02
    -35.957  0.0000E+00  0.0000E+00  0.1200E+02  0.1200E+02
    -35.677  0.0000E+00  0.0000E+00  0.1200E+02  0.1200E+02
    -35.397  0.0000E+00  0.0000E+00  0.1200E+02  0.1200E+02
    -35.117  0.0000E+00  0.0000E+00  0.1200E+02  0.1200E+02
    -34.837  0.0000E+00  0.0000E+00  0.1200E+02  0.1200E+02
    -34.556  0.0000E+00  0.0000E+00  0.1200E+02  0.1200E+02
    -34.276  0.0000E+00  0.0000E+00  0.1200E+02  0.1200E+02
    -33.996  0.0000E+00  0.0000E+00  0.1200E+02  0.1200E+02
    -33.716  0.0000E+00  0.0000E+00  0.1200E+02  0.1200E+02
    -33.436  0.0000E+00  0.0000E+00  0.1200E+02  0.1200E+02
    -33.156  0.0000E+00  0.0000E+00  0.1200E+02  0.1200E+02
    -32.876  0.0000E+00  0.0000E+00  0.1200E+02  0.1200E+02
    -32.596  0.0000E+00  0.0000E+00  0.1200E+02  0.1200E+02
    -32.315  0.0000E+00  0.0000E+00  0.1200E+02  0.1200E+02
    -32.035  0.0000E+00  0.0000E+00  0.1200E+02  0.1200E+02
    -31.755  0.0000E+00  0.0000E+00  0.1200E+02  0.1200E+02
    -31.475  0.0000E+00  0.0000E+00  0.1200E+02  0.1200E+02
    -31.195  0.0000E+00  0.0000E+00  0.1200E+02  0.1200E+02
    -30.915  0.0000E+00  0.0000E+00  0.1200E+02  0.1200E+02
    -30.635  0.0000E+00  0.0000E+00  0.1200E+02  0.1200E+02
    -30.354  0.0000E+00  0.0000E+00  0.1200E+02  0.1200E+02
    -30.074  0.0000E+00  0.0000E+00  0.1200E+02  0.1200E+02
    -29.794  0.0000E+00  0.0000E+00  0.1200E+02  0.1200E+02
    -29.514  0.0000E+00  0.0000E+00  0.1200E+02  0.1200E+02
    -29.234  0.0000E+00  0.0000E+00  0.1200E+02  0.1200E+02
    -28.954  0.0000E+00  0.0000E+00  0.1200E+02  0.1200E+02
    -28.674  0.0000E+00  0.0000E+00  0.1200E+02  0.1200E+02
    -28.393  0.0000E+00  0.0000E+00  0.1200E+02  0.1200E+02
    -28.113  0.0000E+00  0.0000E+00  0.1200E+02  0.1200E+02
    -27.833  0.0000E+00  0.0000E+00  0.1200E+02  0.1200E+02
    -27.553  0.0000E+00  0.0000E+00  0.1200E+02  0.1200E+02
    -27.273  0.0000E+00  0.0000E+00  0.1200E+02  0.1200E+02
    -26.993  0.0000E+00  0.0000E+00  0.1200E+02  0.1200E+02
    -26.713  0.0000E+00  0.0000E+00  0.1200E+02  0.1200E+02
    -26.432  0.0000E+00  0.0000E+00  0.1200E+02  0.1200E+02
    -26.152  0.0000E+00  0.0000E+00  0.1200E+02  0.1200E+02
    -25.872  0.0000E+00  0.0000E+00  0.1200E+02  0.1200E+02
    -25.592  0.0000E+00  0.0000E+00  0.1200E+02  0.1200E+02
    -25.312  0.0000E+00  0.0000E+00  0.1200E+02  0.1200E+02
    -25.032  0.0000E+00  0.0000E+00  0.1200E+02  0.1200E+02
    -24.752  0.0000E+00  0.0000E+00  0.1200E+02  0.1200E+02
    -24.472  0.0000E+00  0.0000E+00  0.1200E+02  0.1200E+02
    -24.191  0.0000E+00  0.0000E+00  0.1200E+02  0.1200E+02
    -23.911  0.0000E+00  0.0000E+00  0.1200E+02  0.1200E+02
    -23.631  0.0000E+00  0.0000E+00  0.1200E+02  0.1200E+02
    -23.351  0.0000E+00  0.0000E+00  0.1200E+02  0.1200E+02
    -23.071  0.0000E+00  0.0000E+00  0.1200E+02  0.1200E+02
    -22.791  0.0000E+00  0.0000E+00  0.1200E+02  0.1200E+02
    -22.511  0.0000E+00  0.0000E+00  0.1200E+02  0.1200E+02
    -22.230  0.0000E+00  0.0000E+00  0.1200E+02  0.1200E+02
    -21.950  0.0000E+00  0.0000E+00  0.1200E+02  0.1200E+02
    -21.670  0.0000E+00  0.0000E+00  0.1200E+02  0.1200E+02
    -21.390  0.0000E+00  0.0000E+00  0.1200E+02  0.1200E+02
    -21.110  0.0000E+00  0.0000E+00  0.1200E+02  0.1200E+02
    -20.830  0.0000E+00  0.0000E+00  0.1200E+02  0.1200E+02
    -20.550  0.0000E+00  0.0000E+00  0.1200E+02  0.1200E+02
    -20.269  0.0000E+00  0.0000E+00  0.1200E+02  0.1200E+02
    -19.989  0.0000E+00  0.0000E+00  0.1200E+02  0.1200E+02
    -19.709  0.0000E+00  0.0000E+00  0.1200E+02  0.1200E+02
    -19.429  0.0000E+00  0.0000E+00  0.1200E+02  0.1200E+02
    -19.149  0.0000E+00  0.0000E+00  0.1200E+02  0.1200E+02
    -18.869  0.0000E+00  0.0000E+00  0.1200E+02  0.1200E+02
    -18.589  0.0000E+00  0.0000E+00  0.1200E+02  0.1200E+02
    -18.308  0.0000E+00  0.0000E+00  0.1200E+02  0.1200E+02
    -18.028  0.0000E+00  0.0000E+00  0.1200E+02  0.1200E+02
    -17.748  0.0000E+00  0.0000E+00  0.1200E+02  0.1200E+02
    -17.468  0.0000E+00  0.0000E+00  0.1200E+02  0.1200E+02
    -17.188  0.0000E+00  0.0000E+00  0.1200E+02  0.1200E+02
    -16.908  0.0000E+00  0.0000E+00  0.1200E+02  0.1200E+02
    -16.628  0.0000E+00  0.0000E+00  0.1200E+02  0.1200E+02
    -16.347  0.0000E+00  0.0000E+00  0.1200E+02  0.1200E+02
    -16.067  0.0000E+00  0.0000E+00  0.1200E+02  0.1200E+02
    -15.787  0.0000E+00  0.0000E+00  0.1200E+02  0.1200E+02
    -15.507  0.0000E+00  0.0000E+00  0.1200E+02  0.1200E+02
    -15.227  0.0000E+00  0.0000E+00  0.1200E+02  0.1200E+02
    -14.947  0.0000E+00  0.0000E+00  0.1200E+02  0.1200E+02
    -14.667  0.0000E+00  0.0000E+00  0.1200E+02  0.1200E+02
    -14.387  0.0000E+00  0.0000E+00  0.1200E+02  0.1200E+02
    -14.106  0.0000E+00  0.0000E+00  0.1200E+02  0.1200E+02
    -13.826  0.0000E+00  0.0000E+00  0.1200E+02  0.1200E+02
    -13.546  0.0000E+00  0.0000E+00  0.1200E+02  0.1200E+02
    -13.266  0.0000E+00  0.0000E+00  0.1200E+02  0.1200E+02
    -12.986  0.0000E+00  0.0000E+00  0.1200E+02  0.1200E+02
    -12.706  0.0000E+00  0.0000E+00  0.1200E+02  0.1200E+02
    -12.426  0.0000E+00  0.0000E+00  0.1200E+02  0.1200E+02
    -12.145  0.0000E+00  0.0000E+00  0.1200E+02  0.1200E+02
    -11.865  0.0000E+00  0.0000E+00  0.1200E+02  0.1200E+02
    -11.585  0.0000E+00  0.0000E+00  0.1200E+02  0.1200E+02
    -11.305  0.0000E+00  0.0000E+00  0.1200E+02  0.1200E+02
    -11.025  0.0000E+00  0.0000E+00  0.1200E+02  0.1200E+02
    -10.745  0.0000E+00  0.0000E+00  0.1200E+02  0.1200E+02
    -10.465  0.0000E+00  0.0000E+00  0.1200E+02  0.1200E+02
    -10.184  0.0000E+00  0.0000E+00  0.1200E+02  0.1200E+02
     -9.904  0.0000E+00  0.0000E+00  0.1200E+02  0.1200E+02
     -9.624  0.0000E+00  0.0000E+00  0.1200E+02  0.1200E+02
     -9.344  0.0000E+00  0.0000E+00  0.1200E+02  0.1200E+02
     -9.064  0.0000E+00  0.0000E+00  0.1200E+02  0.1200E+02
     -8.784  0.0000E+00  0.0000E+00  0.1200E+02  0.1200E+02
     -8.504  0.0000E+00  0.0000E+00  0.1200E+02  0.1200E+02
     -8.223  0.0000E+00  0.0000E+00  0.1200E+02  0.1200E+02
     -7.943  0.0000E+00  0.0000E+00  0.1200E+02  0.1200E+02
     -7.663  0.0000E+00  0.0000E+00  0.1200E+02  0.1200E+02
     -7.383  0.0000E+00  0.0000E+00  0.1200E+02  0.1200E+02
     -7.103  0.0000E+00  0.0000E+00  0.1200E+02  0.1200E+02
     -6.823  0.0000E+00  0.0000E+00  0.1200E+02  0.1200E+02
     -6.543  0.0000E+00  0.0000E+00  0.1200E+02  0.1200E+02
     -6.262  0.0000E+00  0.0000E+00  0.1200E+02  0.1200E+02
     -5.982  0.0000E+00  0.0000E+00  0.1200E+02  0.1200E+02
     -5.702  0.0000E+00  0.0000E+00  0.1200E+02  0.1200E+02
     -5.422  0.0000E+00  0.0000E+00  0.1200E+02  0.1200E+02
     -5.142  0.0000E+00  0.0000E+00  0.1200E+02  0.1200E+02
     -4.862  0.0000E+00  0.0000E+00  0.1200E+02  0.1200E+02
     -4.582  0.0000E+00  0.0000E+00  0.1200E+02  0.1200E+02
     -4.302  0.0000E+00  0.0000E+00  0.1200E+02  0.1200E+02
     -4.021  0.0000E+00  0.0000E+00  0.1200E+02  0.1200E+02
     -3.741  0.0000E+00  0.0000E+00  0.1200E+02  0.1200E+02
     -3.461  0.0000E+00  0.0000E+00  0.1200E+02  0.1200E+02
     -3.181  0.0000E+00  0.0000E+00  0.1200E+02  0.1200E+02
     -2.901  0.0000E+00  0.0000E+00  0.1200E+02  0.1200E+02
     -2.621  0.0000E+00  0.0000E+00  0.1200E+02  0.1200E+02
     -2.341  0.0000E+00  0.0000E+00  0.1200E+02  0.1200E+02
     -2.060  0.0000E+00  0.0000E+00  0.1200E+02  0.1200E+02
     -1.780  0.0000E+00  0.0000E+00  0.1200E+02  0.1200E+02
     -1.500  0.1033E+00  0.1033E+00  0.1201E+02  0.1201E+02
     -1.220  0.1523E+00  0.1523E+00  0.1205E+02  0.1205E+02
     -0.940  0.2125E+00  0.2125E+00  0.1210E+02  0.1210E+02
     -0.660  0.2564E+00  0.2564E+00  0.1216E+02  0.1216E+02
     -0.380  0.2948E+00  0.2948E+00  0.1224E+02  0.1224E+02
     -0.099  0.3576E+00  0.3576E+00  0.1233E+02  0.1233E+02
      0.181  0.4354E+00  0.4354E+00  0.1244E+02  0.1244E+02
      0.461  0.5876E+00  0.5876E+00  0.1259E+02  0.1259E+02
      0.741  0.4964E+00  0.4964E+00  0.1274E+02  0.1274E+02
      1.021  0.4220E+00  0.4220E+00  0.1288E+02  0.1288E+02
      1.301  0.3285E+00  0.3285E+00  0.1298E+02  0.1298E+02
      1.581  0.2921E+00  0.2921E+00  0.1306E+02  0.1306E+02
      1.862  0.6869E+00  0.6869E+00  0.1318E+02  0.1318E+02
      2.142  0.8799E+00  0.8799E+00  0.1342E+02  0.1342E+02
      2.422  0.5691E+00  0.5691E+00  0.1362E+02  0.1362E+02
      2.702  0.4707E+00  0.4707E+00  0.1375E+02  0.1375E+02
      2.982  0.7784E+00  0.7784E+00  0.1392E+02  0.1392E+02
      3.262  0.9130E+00  0.9130E+00  0.1417E+02  0.1417E+02
      3.542  0.9548E+00  0.9548E+00  0.1443E+02  0.1443E+02
      3.822  0.9333E+00  0.9333E+00  0.1470E+02  0.1470E+02
      4.103  0.1422E+01  0.1422E+01  0.1502E+02  0.1502E+02
      4.383  0.1668E+01  0.1668E+01  0.1550E+02  0.1550E+02
      4.663  0.1250E+01  0.1250E+01  0.1591E+02  0.1591E+02
      4.943  0.1986E+01  0.1986E+01  0.1628E+02  0.1628E+02
      5.223  0.3078E+01  0.3078E+01  0.1724E+02  0.1724E+02
      5.503  0.2160E+01  0.2160E+01  0.1812E+02  0.1812E+02
      5.783  0.7864E+01  0.7864E+01  0.1966E+02  0.1966E+02
      6.064  0.7092E+01  0.7092E+01  0.2138E+02  0.2138E+02
      6.344  0.4299E+01  0.4299E+01  0.2293E+02  0.2293E+02
      6.624  0.4901E+01  0.4901E+01  0.2434E+02  0.2434E+02
      6.904  0.3568E+01  0.3568E+01  0.2597E+02  0.2597E+02
      7.184  0.4333E+01  0.4333E+01  0.2762E+02  0.2762E+02
      7.464  0.6395E+01  0.6395E+01  0.2913E+02  0.2913E+02
      7.744  0.7017E+01  0.7017E+01  0.3152E+02  0.3152E+02
      8.025  0.7793E+01  0.7793E+01  0.3295E+02  0.3295E+02
      8.305  0.3271E+01  0.3271E+01  0.3451E+02  0.3451E+02
      8.585  0.1741E+01  0.1741E+01  0.3511E+02  0.3511E+02
      8.865  0.1482E+01  0.1482E+01  0.3560E+02  0.3560E+02
      9.145  0.9568E+00  0.9568E+00  0.3591E+02  0.3591E+02
      9.425  0.1084E+01  0.1084E+01  0.3619E+02  0.3619E+02
      9.705  0.1130E+01  0.1130E+01  0.3651E+02  0.3651E+02
      9.986  0.1001E+01  0.1001E+01  0.3681E+02  0.3681E+02
     10.266  0.8556E+00  0.8556E+00  0.3708E+02  0.3708E+02
     10.546  0.7735E+00  0.7735E+00  0.3730E+02  0.3730E+02
     10.826  0.6925E+00  0.6925E+00  0.3751E+02  0.3751E+02
     11.106  0.5947E+00  0.5947E+00  0.3769E+02  0.3769E+02
     11.386  0.4251E+00  0.4251E+00  0.3785E+02  0.3785E+02
     11.666  0.4346E+00  0.4346E+00  0.3796E+02  0.3796E+02
     11.947  0.9650E+00  0.9650E+00  0.3816E+02  0.3816E+02
     12.227  0.1175E+01  0.1175E+01  0.3847E+02  0.3847E+02
     12.507  0.1012E+01  0.1012E+01  0.3878E+02  0.3878E+02
     12.787  0.1069E+01  0.1069E+01  0.3907E+02  0.3907E+02
     13.067  0.9583E+00  0.9583E+00  0.3935E+02  0.3935E+02
     13.347  0.1060E+01  0.1060E+01  0.3963E+02  0.3963E+02
     13.627  0.8994E+00  0.8994E+00  0.3991E+02  0.3991E+02
     13.907  0.7703E+00  0.7703E+00  0.4014E+02  0.4014E+02
     14.188  0.9706E+00  0.9706E+00  0.4038E+02  0.4038E+02
     14.468  0.1203E+01  0.1203E+01  0.4068E+02  0.4068E+02
     14.748  0.1022E+01  0.1022E+01  0.4099E+02  0.4099E+02
     15.028  0.1024E+01  0.1024E+01  0.4127E+02  0.4127E+02
     15.308  0.1103E+01  0.1103E+01  0.4157E+02  0.4157E+02
     15.588  0.1144E+01  0.1144E+01  0.4188E+02  0.4188E+02
     15.868  0.1146E+01  0.1146E+01  0.4219E+02  0.4219E+02
     16.149  0.1084E+01  0.1084E+01  0.4250E+02  0.4250E+02
     16.429  0.1164E+01  0.1164E+01  0.4281E+02  0.4281E+02
     16.709  0.1196E+01  0.1196E+01  0.4315E+02  0.4315E+02
     16.989  0.1175E+01  0.1175E+01  0.4348E+02  0.4348E+02
     17.269  0.1144E+01  0.1144E+01  0.4381E+02  0.4381E+02
     17.549  0.1067E+01  0.1067E+01  0.4412E+02  0.4412E+02
     17.829  0.1259E+01  0.1259E+01  0.4444E+02  0.4444E+02
     18.110  0.1276E+01  0.1276E+01  0.4480E+02  0.4480E+02
     18.390  0.1406E+01  0.1406E+01  0.4517E+02  0.4517E+02
     18.670  0.1190E+01  0.1190E+01  0.4554E+02  0.4554E+02
     18.950  0.1124E+01  0.1124E+01  0.4587E+02  0.4587E+02
     19.230  0.9293E+00  0.9293E+00  0.4616E+02  0.4616E+02
     19.510  0.1130E+01  0.1130E+01  0.4643E+02  0.4643E+02
     19.790  0.1274E+01  0.1274E+01  0.4678E+02  0.4678E+02
     20.071  0.1108E+01  0.1108E+01  0.4712E+02  0.4712E+02
     20.351  0.1063E+01  0.1063E+01  0.4743E+02  0.4743E+02
     20.631  0.9654E+00  0.9654E+00  0.4772E+02  0.4772E+02
     20.911  0.4746E+00  0.4746E+00  0.4792E+02  0.4792E+02
     21.191  0.8148E-01  0.8148E-01  0.4799E+02  0.4799E+02
     21.471  0.4385E-02  0.4385E-02  0.4800E+02  0.4800E+02
     21.751  0.0000E+00  0.0000E+00  0.4800E+02  0.4800E+02
     22.032  0.0000E+00  0.0000E+00  0.4800E+02  0.4800E+02
     22.312  0.0000E+00  0.0000E+00  0.4800E+02  0.4800E+02
     22.592  0.0000E+00  0.0000E+00  0.4800E+02  0.4800E+02
     22.872  0.0000E+00  0.0000E+00  0.4800E+02  0.4800E+02
     23.152  0.0000E+00  0.0000E+00  0.4800E+02  0.4800E+02
     23.432  0.0000E+00  0.0000E+00  0.4800E+02  0.4800E+02
     23.712  0.0000E+00  0.0000E+00  0.4800E+02  0.4800E+02
     23.992  0.0000E+00  0.0000E+00  0.4800E+02  0.4800E+02
     24.273  0.0000E+00  0.0000E+00  0.4800E+02  0.4800E+02
     24.553  0.0000E+00  0.0000E+00  0.4800E+02  0.4800E+02
     24.833  0.0000E+00  0.0000E+00  0.4800E+02  0.4800E+02
     25.113  0.0000E+00  0.0000E+00  0.4800E+02  0.4800E+02
     25.393  0.0000E+00  0.0000E+00  0.4800E+02  0.4800E+02
