   6   6   0   0
  0.1160632E+02  0.4255560E-09  0.4255560E-09  0.5015903E-09  0.5000000E-15
  1.000000000000000E-004
  CAR 
 unknown system                          
     26.79648253    -58.71372649  301      8.68265267      1.00000000
    -58.714  0.0000E+00  0.0000E+00  0.0000E+00  0.0000E+00
    -58.429  0.0000E+00  0.0000E+00  0.0000E+00  0.0000E+00
    -58.144  0.0000E+00  0.0000E+00  0.0000E+00  0.0000E+00
    -57.859  0.0000E+00  0.0000E+00  0.0000E+00  0.0000E+00
    -57.574  0.0000E+00  0.0000E+00  0.0000E+00  0.0000E+00
    -57.289  0.0000E+00  0.0000E+00  0.0000E+00  0.0000E+00
    -57.004  0.0000E+00  0.0000E+00  0.0000E+00  0.0000E+00
    -56.718  0.0000E+00  0.0000E+00  0.0000E+00  0.0000E+00
    -56.433  0.0000E+00  0.0000E+00  0.0000E+00  0.0000E+00
    -56.148  0.0000E+00  0.0000E+00  0.0000E+00  0.0000E+00
    -55.863  0.0000E+00  0.0000E+00  0.0000E+00  0.0000E+00
    -55.578  0.0000E+00  0.0000E+00  0.0000E+00  0.0000E+00
    -55.293  0.0000E+00  0.0000E+00  0.0000E+00  0.0000E+00
    -55.008  0.0000E+00  0.0000E+00  0.0000E+00  0.0000E+00
    -54.723  0.7846E+02  0.7846E+02  0.6579E+01  0.6579E+01
    -54.438  0.0000E+00  0.0000E+00  0.1100E+02  0.1100E+02
    -54.153  0.0000E+00  0.0000E+00  0.1200E+02  0.1200E+02
    -53.868  0.0000E+00  0.0000E+00  0.1200E+02  0.1200E+02
    -53.583  0.0000E+00  0.0000E+00  0.1200E+02  0.1200E+02
    -53.298  0.0000E+00  0.0000E+00  0.1200E+02  0.1200E+02
    -53.013  0.0000E+00  0.0000E+00  0.1200E+02  0.1200E+02
    -52.728  0.0000E+00  0.0000E+00  0.1200E+02  0.1200E+02
    -52.443  0.0000E+00  0.0000E+00  0.1200E+02  0.1200E+02
    -52.158  0.0000E+00  0.0000E+00  0.1200E+02  0.1200E+02
    -51.873  0.0000E+00  0.0000E+00  0.1200E+02  0.1200E+02
    -51.588  0.0000E+00  0.0000E+00  0.1200E+02  0.1200E+02
    -51.303  0.0000E+00  0.0000E+00  0.1200E+02  0.1200E+02
    -51.018  0.0000E+00  0.0000E+00  0.1200E+02  0.1200E+02
    -50.733  0.0000E+00  0.0000E+00  0.1200E+02  0.1200E+02
    -50.448  0.0000E+00  0.0000E+00  0.1200E+02  0.1200E+02
    -50.163  0.0000E+00  0.0000E+00  0.1200E+02  0.1200E+02
    -49.878  0.0000E+00  0.0000E+00  0.1200E+02  0.1200E+02
    -49.593  0.0000E+00  0.0000E+00  0.1200E+02  0.1200E+02
    -49.308  0.0000E+00  0.0000E+00  0.1200E+02  0.1200E+02
    -49.023  0.0000E+00  0.0000E+00  0.1200E+02  0.1200E+02
    -48.738  0.0000E+00  0.0000E+00  0.1200E+02  0.1200E+02
    -48.453  0.0000E+00  0.0000E+00  0.1200E+02  0.1200E+02
    -48.167  0.0000E+00  0.0000E+00  0.1200E+02  0.1200E+02
    -47.882  0.0000E+00  0.0000E+00  0.1200E+02  0.1200E+02
    -47.597  0.0000E+00  0.0000E+00  0.1200E+02  0.1200E+02
    -47.312  0.0000E+00  0.0000E+00  0.1200E+02  0.1200E+02
    -47.027  0.0000E+00  0.0000E+00  0.1200E+02  0.1200E+02
    -46.742  0.0000E+00  0.0000E+00  0.1200E+02  0.1200E+02
    -46.457  0.0000E+00  0.0000E+00  0.1200E+02  0.1200E+02
    -46.172  0.0000E+00  0.0000E+00  0.1200E+02  0.1200E+02
    -45.887  0.0000E+00  0.0000E+00  0.1200E+02  0.1200E+02
    -45.602  0.0000E+00  0.0000E+00  0.1200E+02  0.1200E+02
    -45.317  0.0000E+00  0.0000E+00  0.1200E+02  0.1200E+02
    -45.032  0.0000E+00  0.0000E+00  0.1200E+02  0.1200E+02
    -44.747  0.0000E+00  0.0000E+00  0.1200E+02  0.1200E+02
    -44.462  0.0000E+00  0.0000E+00  0.1200E+02  0.1200E+02
    -44.177  0.0000E+00  0.0000E+00  0.1200E+02  0.1200E+02
    -43.892  0.0000E+00  0.0000E+00  0.1200E+02  0.1200E+02
    -43.607  0.0000E+00  0.0000E+00  0.1200E+02  0.1200E+02
    -43.322  0.0000E+00  0.0000E+00  0.1200E+02  0.1200E+02
    -43.037  0.0000E+00  0.0000E+00  0.1200E+02  0.1200E+02
    -42.752  0.0000E+00  0.0000E+00  0.1200E+02  0.1200E+02
    -42.467  0.0000E+00  0.0000E+00  0.1200E+02  0.1200E+02
    -42.182  0.0000E+00  0.0000E+00  0.1200E+02  0.1200E+02
    -41.897  0.0000E+00  0.0000E+00  0.1200E+02  0.1200E+02
    -41.612  0.0000E+00  0.0000E+00  0.1200E+02  0.1200E+02
    -41.327  0.0000E+00  0.0000E+00  0.1200E+02  0.1200E+02
    -41.042  0.0000E+00  0.0000E+00  0.1200E+02  0.1200E+02
    -40.757  0.0000E+00  0.0000E+00  0.1200E+02  0.1200E+02
    -40.472  0.0000E+00  0.0000E+00  0.1200E+02  0.1200E+02
    -40.187  0.0000E+00  0.0000E+00  0.1200E+02  0.1200E+02
    -39.901  0.0000E+00  0.0000E+00  0.1200E+02  0.1200E+02
    -39.616  0.0000E+00  0.0000E+00  0.1200E+02  0.1200E+02
    -39.331  0.0000E+00  0.0000E+00  0.1200E+02  0.1200E+02
    -39.046  0.0000E+00  0.0000E+00  0.1200E+02  0.1200E+02
    -38.761  0.0000E+00  0.0000E+00  0.1200E+02  0.1200E+02
    -38.476  0.0000E+00  0.0000E+00  0.1200E+02  0.1200E+02
    -38.191  0.0000E+00  0.0000E+00  0.1200E+02  0.1200E+02
    -37.906  0.0000E+00  0.0000E+00  0.1200E+02  0.1200E+02
    -37.621  0.0000E+00  0.0000E+00  0.1200E+02  0.1200E+02
    -37.336  0.0000E+00  0.0000E+00  0.1200E+02  0.1200E+02
    -37.051  0.0000E+00  0.0000E+00  0.1200E+02  0.1200E+02
    -36.766  0.0000E+00  0.0000E+00  0.1200E+02  0.1200E+02
    -36.481  0.0000E+00  0.0000E+00  0.1200E+02  0.1200E+02
    -36.196  0.0000E+00  0.0000E+00  0.1200E+02  0.1200E+02
    -35.911  0.0000E+00  0.0000E+00  0.1200E+02  0.1200E+02
    -35.626  0.0000E+00  0.0000E+00  0.1200E+02  0.1200E+02
    -35.341  0.0000E+00  0.0000E+00  0.1200E+02  0.1200E+02
    -35.056  0.0000E+00  0.0000E+00  0.1200E+02  0.1200E+02
    -34.771  0.0000E+00  0.0000E+00  0.1200E+02  0.1200E+02
    -34.486  0.0000E+00  0.0000E+00  0.1200E+02  0.1200E+02
    -34.201  0.0000E+00  0.0000E+00  0.1200E+02  0.1200E+02
    -33.916  0.0000E+00  0.0000E+00  0.1200E+02  0.1200E+02
    -33.631  0.0000E+00  0.0000E+00  0.1200E+02  0.1200E+02
    -33.346  0.0000E+00  0.0000E+00  0.1200E+02  0.1200E+02
    -33.061  0.0000E+00  0.0000E+00  0.1200E+02  0.1200E+02
    -32.776  0.0000E+00  0.0000E+00  0.1200E+02  0.1200E+02
    -32.491  0.0000E+00  0.0000E+00  0.1200E+02  0.1200E+02
    -32.206  0.0000E+00  0.0000E+00  0.1200E+02  0.1200E+02
    -31.921  0.0000E+00  0.0000E+00  0.1200E+02  0.1200E+02
    -31.635  0.0000E+00  0.0000E+00  0.1200E+02  0.1200E+02
    -31.350  0.0000E+00  0.0000E+00  0.1200E+02  0.1200E+02
    -31.065  0.0000E+00  0.0000E+00  0.1200E+02  0.1200E+02
    -30.780  0.0000E+00  0.0000E+00  0.1200E+02  0.1200E+02
    -30.495  0.0000E+00  0.0000E+00  0.1200E+02  0.1200E+02
    -30.210  0.0000E+00  0.0000E+00  0.1200E+02  0.1200E+02
    -29.925  0.0000E+00  0.0000E+00  0.1200E+02  0.1200E+02
    -29.640  0.0000E+00  0.0000E+00  0.1200E+02  0.1200E+02
    -29.355  0.0000E+00  0.0000E+00  0.1200E+02  0.1200E+02
    -29.070  0.0000E+00  0.0000E+00  0.1200E+02  0.1200E+02
    -28.785  0.0000E+00  0.0000E+00  0.1200E+02  0.1200E+02
    -28.500  0.0000E+00  0.0000E+00  0.1200E+02  0.1200E+02
    -28.215  0.0000E+00  0.0000E+00  0.1200E+02  0.1200E+02
    -27.930  0.0000E+00  0.0000E+00  0.1200E+02  0.1200E+02
    -27.645  0.0000E+00  0.0000E+00  0.1200E+02  0.1200E+02
    -27.360  0.0000E+00  0.0000E+00  0.1200E+02  0.1200E+02
    -27.075  0.0000E+00  0.0000E+00  0.1200E+02  0.1200E+02
    -26.790  0.0000E+00  0.0000E+00  0.1200E+02  0.1200E+02
    -26.505  0.0000E+00  0.0000E+00  0.1200E+02  0.1200E+02
    -26.220  0.0000E+00  0.0000E+00  0.1200E+02  0.1200E+02
    -25.935  0.0000E+00  0.0000E+00  0.1200E+02  0.1200E+02
    -25.650  0.0000E+00  0.0000E+00  0.1200E+02  0.1200E+02
    -25.365  0.0000E+00  0.0000E+00  0.1200E+02  0.1200E+02
    -25.080  0.0000E+00  0.0000E+00  0.1200E+02  0.1200E+02
    -24.795  0.0000E+00  0.0000E+00  0.1200E+02  0.1200E+02
    -24.510  0.0000E+00  0.0000E+00  0.1200E+02  0.1200E+02
    -24.225  0.0000E+00  0.0000E+00  0.1200E+02  0.1200E+02
    -23.940  0.0000E+00  0.0000E+00  0.1200E+02  0.1200E+02
    -23.655  0.0000E+00  0.0000E+00  0.1200E+02  0.1200E+02
    -23.370  0.0000E+00  0.0000E+00  0.1200E+02  0.1200E+02
    -23.084  0.0000E+00  0.0000E+00  0.1200E+02  0.1200E+02
    -22.799  0.0000E+00  0.0000E+00  0.1200E+02  0.1200E+02
    -22.514  0.0000E+00  0.0000E+00  0.1200E+02  0.1200E+02
    -22.229  0.0000E+00  0.0000E+00  0.1200E+02  0.1200E+02
    -21.944  0.0000E+00  0.0000E+00  0.1200E+02  0.1200E+02
    -21.659  0.0000E+00  0.0000E+00  0.1200E+02  0.1200E+02
    -21.374  0.0000E+00  0.0000E+00  0.1200E+02  0.1200E+02
    -21.089  0.0000E+00  0.0000E+00  0.1200E+02  0.1200E+02
    -20.804  0.0000E+00  0.0000E+00  0.1200E+02  0.1200E+02
    -20.519  0.0000E+00  0.0000E+00  0.1200E+02  0.1200E+02
    -20.234  0.0000E+00  0.0000E+00  0.1200E+02  0.1200E+02
    -19.949  0.0000E+00  0.0000E+00  0.1200E+02  0.1200E+02
    -19.664  0.0000E+00  0.0000E+00  0.1200E+02  0.1200E+02
    -19.379  0.0000E+00  0.0000E+00  0.1200E+02  0.1200E+02
    -19.094  0.0000E+00  0.0000E+00  0.1200E+02  0.1200E+02
    -18.809  0.0000E+00  0.0000E+00  0.1200E+02  0.1200E+02
    -18.524  0.0000E+00  0.0000E+00  0.1200E+02  0.1200E+02
    -18.239  0.0000E+00  0.0000E+00  0.1200E+02  0.1200E+02
    -17.954  0.0000E+00  0.0000E+00  0.1200E+02  0.1200E+02
    -17.669  0.0000E+00  0.0000E+00  0.1200E+02  0.1200E+02
    -17.384  0.0000E+00  0.0000E+00  0.1200E+02  0.1200E+02
    -17.099  0.0000E+00  0.0000E+00  0.1200E+02  0.1200E+02
    -16.814  0.0000E+00  0.0000E+00  0.1200E+02  0.1200E+02
    -16.529  0.0000E+00  0.0000E+00  0.1200E+02  0.1200E+02
    -16.244  0.0000E+00  0.0000E+00  0.1200E+02  0.1200E+02
    -15.959  0.0000E+00  0.0000E+00  0.1200E+02  0.1200E+02
    -15.674  0.0000E+00  0.0000E+00  0.1200E+02  0.1200E+02
    -15.389  0.0000E+00  0.0000E+00  0.1200E+02  0.1200E+02
    -15.104  0.0000E+00  0.0000E+00  0.1200E+02  0.1200E+02
    -14.818  0.0000E+00  0.0000E+00  0.1200E+02  0.1200E+02
    -14.533  0.0000E+00  0.0000E+00  0.1200E+02  0.1200E+02
    -14.248  0.0000E+00  0.0000E+00  0.1200E+02  0.1200E+02
    -13.963  0.0000E+00  0.0000E+00  0.1200E+02  0.1200E+02
    -13.678  0.0000E+00  0.0000E+00  0.1200E+02  0.1200E+02
    -13.393  0.0000E+00  0.0000E+00  0.1200E+02  0.1200E+02
    -13.108  0.0000E+00  0.0000E+00  0.1200E+02  0.1200E+02
    -12.823  0.0000E+00  0.0000E+00  0.1200E+02  0.1200E+02
    -12.538  0.0000E+00  0.0000E+00  0.1200E+02  0.1200E+02
    -12.253  0.0000E+00  0.0000E+00  0.1200E+02  0.1200E+02
    -11.968  0.0000E+00  0.0000E+00  0.1200E+02  0.1200E+02
    -11.683  0.0000E+00  0.0000E+00  0.1200E+02  0.1200E+02
    -11.398  0.0000E+00  0.0000E+00  0.1200E+02  0.1200E+02
    -11.113  0.0000E+00  0.0000E+00  0.1200E+02  0.1200E+02
    -10.828  0.0000E+00  0.0000E+00  0.1200E+02  0.1200E+02
    -10.543  0.0000E+00  0.0000E+00  0.1200E+02  0.1200E+02
    -10.258  0.0000E+00  0.0000E+00  0.1200E+02  0.1200E+02
     -9.973  0.0000E+00  0.0000E+00  0.1200E+02  0.1200E+02
     -9.688  0.0000E+00  0.0000E+00  0.1200E+02  0.1200E+02
     -9.403  0.0000E+00  0.0000E+00  0.1200E+02  0.1200E+02
     -9.118  0.0000E+00  0.0000E+00  0.1200E+02  0.1200E+02
     -8.833  0.0000E+00  0.0000E+00  0.1200E+02  0.1200E+02
     -8.548  0.0000E+00  0.0000E+00  0.1200E+02  0.1200E+02
     -8.263  0.0000E+00  0.0000E+00  0.1200E+02  0.1200E+02
     -7.978  0.0000E+00  0.0000E+00  0.1200E+02  0.1200E+02
     -7.693  0.0000E+00  0.0000E+00  0.1200E+02  0.1200E+02
     -7.408  0.0000E+00  0.0000E+00  0.1200E+02  0.1200E+02
     -7.123  0.0000E+00  0.0000E+00  0.1200E+02  0.1200E+02
     -6.838  0.0000E+00  0.0000E+00  0.1200E+02  0.1200E+02
     -6.552  0.0000E+00  0.0000E+00  0.1200E+02  0.1200E+02
     -6.267  0.0000E+00  0.0000E+00  0.1200E+02  0.1200E+02
     -5.982  0.0000E+00  0.0000E+00  0.1200E+02  0.1200E+02
     -5.697  0.0000E+00  0.0000E+00  0.1200E+02  0.1200E+02
     -5.412  0.0000E+00  0.0000E+00  0.1200E+02  0.1200E+02
     -5.127  0.0000E+00  0.0000E+00  0.1200E+02  0.1200E+02
     -4.842  0.0000E+00  0.0000E+00  0.1200E+02  0.1200E+02
     -4.557  0.0000E+00  0.0000E+00  0.1200E+02  0.1200E+02
     -4.272  0.0000E+00  0.0000E+00  0.1200E+02  0.1200E+02
     -3.987  0.0000E+00  0.0000E+00  0.1200E+02  0.1200E+02
     -3.702  0.0000E+00  0.0000E+00  0.1200E+02  0.1200E+02
     -3.417  0.0000E+00  0.0000E+00  0.1200E+02  0.1200E+02
     -3.132  0.0000E+00  0.0000E+00  0.1200E+02  0.1200E+02
     -2.847  0.0000E+00  0.0000E+00  0.1200E+02  0.1200E+02
     -2.562  0.0000E+00  0.0000E+00  0.1200E+02  0.1200E+02
     -2.277  0.0000E+00  0.0000E+00  0.1200E+02  0.1200E+02
     -1.992  0.0000E+00  0.0000E+00  0.1200E+02  0.1200E+02
     -1.707  0.6475E-03  0.6475E-03  0.1200E+02  0.1200E+02
     -1.422  0.1089E+00  0.1089E+00  0.1201E+02  0.1201E+02
     -1.137  0.1605E+00  0.1605E+00  0.1205E+02  0.1205E+02
     -0.852  0.2139E+00  0.2139E+00  0.1211E+02  0.1211E+02
     -0.567  0.2996E+00  0.2996E+00  0.1218E+02  0.1218E+02
     -0.282  0.3054E+00  0.3054E+00  0.1227E+02  0.1227E+02
      0.003  0.3219E+00  0.3219E+00  0.1236E+02  0.1236E+02
      0.288  0.3415E+00  0.3415E+00  0.1245E+02  0.1245E+02
      0.573  0.4054E+00  0.4054E+00  0.1256E+02  0.1256E+02
      0.858  0.5175E+00  0.5175E+00  0.1270E+02  0.1270E+02
      1.143  0.5397E+00  0.5397E+00  0.1285E+02  0.1285E+02
      1.428  0.5003E+00  0.5003E+00  0.1299E+02  0.1299E+02
      1.713  0.4704E+00  0.4704E+00  0.1314E+02  0.1314E+02
      1.999  0.4475E+00  0.4475E+00  0.1326E+02  0.1326E+02
      2.284  0.6984E+00  0.6984E+00  0.1342E+02  0.1342E+02
      2.569  0.7574E+00  0.7574E+00  0.1365E+02  0.1365E+02
      2.854  0.6357E+00  0.6357E+00  0.1384E+02  0.1384E+02
      3.139  0.8004E+00  0.8004E+00  0.1403E+02  0.1403E+02
      3.424  0.8698E+00  0.8698E+00  0.1430E+02  0.1430E+02
      3.709  0.8764E+00  0.8764E+00  0.1456E+02  0.1456E+02
      3.994  0.1102E+01  0.1102E+01  0.1484E+02  0.1484E+02
      4.279  0.1242E+01  0.1242E+01  0.1517E+02  0.1517E+02
      4.564  0.1721E+01  0.1721E+01  0.1562E+02  0.1562E+02
      4.849  0.1981E+01  0.1981E+01  0.1611E+02  0.1611E+02
      5.134  0.3483E+01  0.3483E+01  0.1683E+02  0.1683E+02
      5.419  0.2525E+01  0.2525E+01  0.1795E+02  0.1795E+02
      5.704  0.4087E+01  0.4087E+01  0.1898E+02  0.1898E+02
      5.989  0.6000E+01  0.6000E+01  0.2060E+02  0.2060E+02
      6.274  0.6981E+01  0.6981E+01  0.2241E+02  0.2241E+02
      6.559  0.4071E+01  0.4071E+01  0.2410E+02  0.2410E+02
      6.844  0.4607E+01  0.4607E+01  0.2539E+02  0.2539E+02
      7.129  0.8790E+01  0.8790E+01  0.2685E+02  0.2685E+02
      7.414  0.7406E+01  0.7406E+01  0.2905E+02  0.2905E+02
      7.699  0.6346E+01  0.6346E+01  0.3099E+02  0.3099E+02
      7.984  0.4953E+01  0.4953E+01  0.3308E+02  0.3308E+02
      8.269  0.5374E+01  0.5374E+01  0.3408E+02  0.3408E+02
      8.554  0.2258E+01  0.2258E+01  0.3474E+02  0.3474E+02
      8.839  0.1238E+01  0.1238E+01  0.3523E+02  0.3523E+02
      9.124  0.1441E+01  0.1441E+01  0.3556E+02  0.3556E+02
      9.409  0.1400E+01  0.1400E+01  0.3599E+02  0.3599E+02
      9.694  0.1137E+01  0.1137E+01  0.3634E+02  0.3634E+02
      9.979  0.1125E+01  0.1125E+01  0.3666E+02  0.3666E+02
     10.265  0.9986E+00  0.9986E+00  0.3696E+02  0.3696E+02
     10.550  0.8369E+00  0.8369E+00  0.3722E+02  0.3722E+02
     10.835  0.6236E+00  0.6236E+00  0.3742E+02  0.3742E+02
     11.120  0.5744E+00  0.5744E+00  0.3759E+02  0.3759E+02
     11.405  0.4717E+00  0.4717E+00  0.3774E+02  0.3774E+02
     11.690  0.3528E+00  0.3528E+00  0.3786E+02  0.3786E+02
     11.975  0.6857E+00  0.6857E+00  0.3801E+02  0.3801E+02
     12.260  0.1293E+01  0.1293E+01  0.3830E+02  0.3830E+02
     12.545  0.1110E+01  0.1110E+01  0.3864E+02  0.3864E+02
     12.830  0.9532E+00  0.9532E+00  0.3893E+02  0.3893E+02
     13.115  0.1161E+01  0.1161E+01  0.3924E+02  0.3924E+02
     13.400  0.1087E+01  0.1087E+01  0.3956E+02  0.3956E+02
     13.685  0.9217E+00  0.9217E+00  0.3984E+02  0.3984E+02
     13.970  0.9935E+00  0.9935E+00  0.4014E+02  0.4014E+02
     14.255  0.8960E+00  0.8960E+00  0.4039E+02  0.4039E+02
     14.540  0.9607E+00  0.9607E+00  0.4066E+02  0.4066E+02
     14.825  0.9792E+00  0.9792E+00  0.4094E+02  0.4094E+02
     15.110  0.9719E+00  0.9719E+00  0.4122E+02  0.4122E+02
     15.395  0.1078E+01  0.1078E+01  0.4152E+02  0.4152E+02
     15.680  0.1180E+01  0.1180E+01  0.4183E+02  0.4183E+02
     15.965  0.1115E+01  0.1115E+01  0.4216E+02  0.4216E+02
     16.250  0.1266E+01  0.1266E+01  0.4254E+02  0.4254E+02
     16.535  0.1054E+01  0.1054E+01  0.4287E+02  0.4287E+02
     16.820  0.1021E+01  0.1021E+01  0.4316E+02  0.4316E+02
     17.105  0.1108E+01  0.1108E+01  0.4346E+02  0.4346E+02
     17.390  0.1095E+01  0.1095E+01  0.4378E+02  0.4378E+02
     17.675  0.1068E+01  0.1068E+01  0.4408E+02  0.4408E+02
     17.960  0.1239E+01  0.1239E+01  0.4440E+02  0.4440E+02
     18.245  0.1141E+01  0.1141E+01  0.4475E+02  0.4475E+02
     18.530  0.1211E+01  0.1211E+01  0.4509E+02  0.4509E+02
     18.816  0.1233E+01  0.1233E+01  0.4544E+02  0.4544E+02
     19.101  0.1391E+01  0.1391E+01  0.4582E+02  0.4582E+02
     19.386  0.1084E+01  0.1084E+01  0.4616E+02  0.4616E+02
     19.671  0.1151E+01  0.1151E+01  0.4649E+02  0.4649E+02
     19.956  0.9937E+00  0.9937E+00  0.4683E+02  0.4683E+02
     20.241  0.8624E+00  0.8624E+00  0.4708E+02  0.4708E+02
     20.526  0.9487E+00  0.9487E+00  0.4736E+02  0.4736E+02
     20.811  0.5687E+00  0.5687E+00  0.4758E+02  0.4758E+02
     21.096  0.3937E+00  0.3937E+00  0.4772E+02  0.4772E+02
     21.381  0.2847E+00  0.2847E+00  0.4781E+02  0.4781E+02
     21.666  0.2170E+00  0.2170E+00  0.4789E+02  0.4789E+02
     21.951  0.1490E+00  0.1490E+00  0.4794E+02  0.4794E+02
     22.236  0.9401E-01  0.9401E-01  0.4797E+02  0.4797E+02
     22.521  0.4458E-01  0.4458E-01  0.4799E+02  0.4799E+02
     22.806  0.1548E-01  0.1548E-01  0.4800E+02  0.4800E+02
     23.091  0.0000E+00  0.0000E+00  0.4800E+02  0.4800E+02
     23.376  0.0000E+00  0.0000E+00  0.4800E+02  0.4800E+02
     23.661  0.0000E+00  0.0000E+00  0.4800E+02  0.4800E+02
     23.946  0.0000E+00  0.0000E+00  0.4800E+02  0.4800E+02
     24.231  0.0000E+00  0.0000E+00  0.4800E+02  0.4800E+02
     24.516  0.0000E+00  0.0000E+00  0.4800E+02  0.4800E+02
     24.801  0.0000E+00  0.0000E+00  0.4800E+02  0.4800E+02
     25.086  0.0000E+00  0.0000E+00  0.4800E+02  0.4800E+02
     25.371  0.0000E+00  0.0000E+00  0.4800E+02  0.4800E+02
     25.656  0.0000E+00  0.0000E+00  0.4800E+02  0.4800E+02
     25.941  0.0000E+00  0.0000E+00  0.4800E+02  0.4800E+02
     26.226  0.0000E+00  0.0000E+00  0.4800E+02  0.4800E+02
     26.511  0.0000E+00  0.0000E+00  0.4800E+02  0.4800E+02
     26.796  0.0000E+00  0.0000E+00  0.4800E+02  0.4800E+02
