       N       E                     dE             d eps       ncg     rms          rms(c)
DAV:   1     0.865456203213E+03    0.86546E+03   -0.41300E+04 12168   0.178E+03
DAV:   2     0.180042588353E+02   -0.84745E+03   -0.81108E+03 10792   0.566E+02
DAV:   3    -0.366360415916E+02   -0.54640E+02   -0.51678E+02 12128   0.164E+02
DAV:   4    -0.381147522843E+02   -0.14787E+01   -0.14738E+01 11896   0.258E+01
DAV:   5    -0.381540679427E+02   -0.39316E-01   -0.39313E-01 12472   0.408E+00    0.243E+01
DAV:   6    -0.437441660001E+02   -0.55901E+01   -0.78118E+01 12016   0.105E+02    0.293E+01
DAV:   7    -0.331714787634E+02    0.10573E+02   -0.30344E+01 12272   0.690E+01    0.418E+00
DAV:   8    -0.335116279664E+02   -0.34015E+00   -0.28898E+00 12792   0.273E+01    0.757E+00
DAV:   9    -0.331977668891E+02    0.31386E+00   -0.12775E+00 12760   0.156E+01    0.146E+00
DAV:  10    -0.332074020478E+02   -0.96352E-02   -0.15668E-01 15288   0.665E+00    0.215E+00
DAV:  11    -0.331776998695E+02    0.29702E-01   -0.88242E-02 11880   0.555E+00    0.360E-01
DAV:  12    -0.331770888429E+02    0.61103E-03   -0.99613E-03 11752   0.955E-01    0.180E-01
DAV:  13    -0.331769445569E+02    0.14429E-03   -0.12102E-03 12560   0.407E-01    0.735E-02
DAV:  14    -0.331769450796E+02   -0.52272E-06   -0.10462E-04 13496   0.126E-01    0.271E-02
DAV:  15    -0.331769436416E+02    0.14380E-05   -0.30245E-05 13456   0.539E-02    0.119E-02
DAV:  16    -0.331769437525E+02   -0.11089E-06   -0.31090E-06 11816   0.198E-02    0.587E-03
DAV:  17    -0.331769433376E+02    0.41496E-06   -0.74611E-07 13576   0.822E-03    0.204E-03
DAV:  18    -0.331769432374E+02    0.10018E-06   -0.23465E-07 12392   0.377E-03    0.761E-04
DAV:  19    -0.331769432376E+02   -0.22555E-09   -0.24139E-08  8152   0.136E-03
   1 F= -.33176943E+02 E0= -.33176779E+02  d E =-.331769E+02  mag=    -0.0001
       N       E                     dE             d eps       ncg     rms          rms(c)
DAV:   1    -0.836460747059E+02   -0.50469E+02   -0.49615E+02 11280   0.281E+02    0.611E+01
DAV:   2    -0.729075579427E+02    0.10739E+02   -0.47711E+02 11952   0.216E+02    0.528E+01
DAV:   3    -0.361324897286E+02    0.36775E+02   -0.13797E+02 11904   0.129E+02    0.174E+01
DAV:   4    -0.354380219472E+02    0.69447E+00   -0.14813E+01 12864   0.592E+01    0.157E+01
DAV:   5    -0.338937243842E+02    0.15443E+01   -0.81325E+00 12832   0.349E+01    0.670E+00
DAV:   6    -0.336328446598E+02    0.26088E+00   -0.92685E-01 13992   0.126E+01    0.236E+00
DAV:   7    -0.335050299187E+02    0.12781E+00   -0.53319E-01 11928   0.885E+00    0.182E+00
DAV:   8    -0.334778625308E+02    0.27167E-01   -0.12781E-01 11936   0.465E+00    0.430E-01
DAV:   9    -0.334762095714E+02    0.16530E-02   -0.93424E-03 11616   0.146E+00    0.185E-01
DAV:  10    -0.334760757110E+02    0.13386E-03   -0.13470E-03 13344   0.611E-01    0.830E-02
DAV:  11    -0.334760539036E+02    0.21807E-04   -0.22135E-04 13776   0.246E-01    0.409E-02
DAV:  12    -0.334760461243E+02    0.77793E-05   -0.47452E-05 11944   0.783E-02    0.604E-03
DAV:  13    -0.334760470851E+02   -0.96078E-06   -0.33437E-06 14400   0.206E-02    0.441E-03
DAV:  14    -0.334760469325E+02    0.15264E-06   -0.76951E-07 11784   0.127E-02    0.103E-03
DAV:  15    -0.334760468494E+02    0.83020E-07   -0.10206E-07 10952   0.350E-03    0.327E-04
DAV:  16    -0.334760468410E+02    0.84801E-08   -0.52593E-09  6216   0.825E-04
   2 F= -.33476047E+02 E0= -.33475719E+02  d E =-.299104E+00  mag=     0.0000
       N       E                     dE             d eps       ncg     rms          rms(c)
DAV:   1    -0.392227355367E+02   -0.57467E+01   -0.49817E+01 11712   0.796E+01    0.244E+01
DAV:   2    -0.448693734015E+02   -0.56466E+01   -0.79191E+01 11696   0.104E+02    0.282E+01
DAV:   3    -0.335901919577E+02    0.11279E+02   -0.31349E+01 11792   0.654E+01    0.332E+00
DAV:   4    -0.336726302384E+02   -0.82438E-01   -0.15116E+00 12240   0.157E+01    0.394E+00
DAV:   5    -0.335916387295E+02    0.80992E-01   -0.56966E-01 14272   0.103E+01    0.235E+00
DAV:   6    -0.335428089579E+02    0.48830E-01   -0.98037E-02 13152   0.408E+00    0.811E-01
DAV:   7    -0.335405381488E+02    0.22708E-02   -0.21016E-02 12352   0.232E+00    0.487E-01
DAV:   8    -0.335384206486E+02    0.21175E-02   -0.56271E-03 14336   0.114E+00    0.802E-02
DAV:   9    -0.335384697444E+02   -0.49096E-04   -0.12194E-03 11824   0.290E-01    0.232E-02
DAV:  10    -0.335384627544E+02    0.69900E-05   -0.47189E-05 12144   0.594E-02    0.192E-02
DAV:  11    -0.335384586958E+02    0.40586E-05   -0.90021E-06 12512   0.415E-02    0.379E-03
DAV:  12    -0.335384582855E+02    0.41029E-06   -0.18384E-06 11888   0.110E-02    0.784E-04
DAV:  13    -0.335384582608E+02    0.24669E-07   -0.16191E-07 11696   0.370E-03    0.751E-04
DAV:  14    -0.335384581817E+02    0.79133E-07   -0.22496E-08  7208   0.207E-03    0.299E-04
DAV:  15    -0.335384581797E+02    0.19591E-08   -0.42779E-09  6080   0.949E-04
   3 F= -.33538458E+02 E0= -.33538057E+02  d E =-.361515E+00  mag=     0.0000
       N       E                     dE             d eps       ncg     rms          rms(c)
DAV:   1    -0.347369167841E+02   -0.11985E+01   -0.24837E+01 12080   0.953E+01    0.123E+01
DAV:   2    -0.359718168935E+02   -0.12349E+01   -0.20433E+01 11808   0.513E+01    0.134E+01
DAV:   3    -0.337586982651E+02    0.22131E+01   -0.71093E+00 11824   0.334E+01    0.385E+00
DAV:   4    -0.338646137118E+02   -0.10592E+00   -0.11742E+00 12544   0.207E+01    0.576E+00
DAV:   5    -0.336448871290E+02    0.21973E+00   -0.57469E-01 12928   0.978E+00    0.557E-01
DAV:   6    -0.336474231786E+02   -0.25360E-02   -0.49347E-02 12512   0.278E+00    0.719E-01
DAV:   7    -0.336445403597E+02    0.28828E-02   -0.13594E-02 11952   0.227E+00    0.241E-01
DAV:   8    -0.336442079490E+02    0.33241E-03   -0.17879E-03 12352   0.609E-01    0.717E-02
DAV:   9    -0.336442334350E+02   -0.25486E-04   -0.28089E-04 12080   0.179E-01    0.207E-02
DAV:  10    -0.336442263883E+02    0.70467E-05   -0.25006E-05 12080   0.588E-02    0.635E-03
DAV:  11    -0.336442258579E+02    0.53033E-06   -0.21070E-06 12296   0.151E-02    0.205E-03
DAV:  12    -0.336442257013E+02    0.15663E-06   -0.29494E-07 11968   0.583E-03    0.687E-04
DAV:  13    -0.336442256718E+02    0.29506E-07   -0.31043E-08  9288   0.208E-03    0.159E-04
DAV:  14    -0.336442256578E+02    0.14041E-07   -0.31156E-09  6200   0.552E-04    0.578E-05
DAV:  15    -0.336442256566E+02    0.11350E-08   -0.72193E-10  5952   0.303E-04
   4 F= -.33644226E+02 E0= -.33643814E+02  d E =-.105767E+00  mag=     0.0000
       N       E                     dE             d eps       ncg     rms          rms(c)
DAV:   1    -0.341664330845E+02   -0.52221E+00   -0.11174E+01 12416   0.629E+01    0.819E+00
DAV:   2    -0.346755413515E+02   -0.50911E+00   -0.90976E+00 11872   0.347E+01    0.893E+00
DAV:   3    -0.337319643752E+02    0.94358E+00   -0.31062E+00 11824   0.235E+01    0.308E+00
DAV:   4    -0.337427920267E+02   -0.10828E-01   -0.62491E-01 12336   0.141E+01    0.313E+00
DAV:   5    -0.336662286054E+02    0.76563E-01   -0.16319E-01 14032   0.594E+00    0.403E-01
DAV:   6    -0.336692591232E+02   -0.30305E-02   -0.27357E-02 14496   0.267E+00    0.746E-01
DAV:   7    -0.336658334246E+02    0.34257E-02   -0.10988E-02 12016   0.211E+00    0.117E-01
DAV:   8    -0.336658209009E+02    0.12524E-04   -0.10652E-03 11776   0.317E-01    0.476E-02
DAV:   9    -0.336658250049E+02   -0.41040E-05   -0.70383E-05 13072   0.118E-01    0.146E-02
DAV:  10    -0.336658233115E+02    0.16934E-05   -0.13639E-05 11832   0.539E-02    0.384E-03
DAV:  11    -0.336658230423E+02    0.26912E-06   -0.11029E-06 12216   0.146E-02    0.162E-03
DAV:  12    -0.336658229329E+02    0.10942E-06   -0.13873E-07 12712   0.538E-03    0.473E-04
DAV:  13    -0.336658228989E+02    0.33979E-07   -0.14605E-08  6448   0.133E-03    0.187E-04
DAV:  14    -0.336658228945E+02    0.44292E-08   -0.42869E-09  6160   0.639E-04
   5 F= -.33665823E+02 E0= -.33665345E+02  d E =-.127365E+00  mag=    -0.0000
       N       E                     dE             d eps       ncg     rms          rms(c)
DAV:   1    -0.334888268911E+02    0.17700E+00   -0.15518E+01 12320   0.114E+02    0.673E+00
DAV:   2    -0.343424795375E+02   -0.85365E+00   -0.11717E+01 12016   0.321E+01    0.732E+00
DAV:   3    -0.338054717826E+02    0.53701E+00   -0.23401E+00 11520   0.200E+01    0.397E+00
DAV:   4    -0.337231145295E+02    0.82357E-01   -0.45488E-01 12160   0.120E+01    0.185E+00
DAV:   5    -0.336886704344E+02    0.34444E-01   -0.82324E-02 13920   0.396E+00    0.600E-01
DAV:   6    -0.336996562984E+02   -0.10986E-01   -0.67948E-02 12304   0.533E+00    0.140E+00
DAV:   7    -0.336861511734E+02    0.13505E-01   -0.29242E-02 12160   0.341E+00    0.944E-02
DAV:   8    -0.336862535742E+02   -0.10240E-03   -0.26695E-03 11760   0.422E-01    0.912E-02
DAV:   9    -0.336862123329E+02    0.41241E-04   -0.30363E-04 12592   0.274E-01    0.251E-02
DAV:  10    -0.336862162304E+02   -0.38975E-05   -0.25147E-05 12576   0.632E-02    0.489E-03
DAV:  11    -0.336862163649E+02   -0.13451E-06   -0.25401E-06 12928   0.185E-02    0.268E-03
DAV:  12    -0.336862164498E+02   -0.84829E-07   -0.44952E-07 12752   0.910E-03    0.131E-03
DAV:  13    -0.336862164657E+02   -0.15953E-07   -0.77765E-08 11056   0.402E-03    0.258E-04
DAV:  14    -0.336862164696E+02   -0.38672E-08   -0.46544E-09  6000   0.886E-04
   6 F= -.33686216E+02 E0= -.33685691E+02  d E =-.203936E-01  mag=     0.0000
       N       E                     dE             d eps       ncg     rms          rms(c)
DAV:   1    -0.336239213296E+02    0.62295E-01   -0.44830E+00 12320   0.616E+01    0.359E+00
DAV:   2    -0.338691837326E+02   -0.24526E+00   -0.32743E+00 12464   0.170E+01    0.382E+00
DAV:   3    -0.337180047628E+02    0.15118E+00   -0.63405E-01 11552   0.104E+01    0.193E+00
DAV:   4    -0.337010247954E+02    0.16980E-01   -0.12377E-01 11840   0.717E+00    0.109E+00
DAV:   5    -0.336900741823E+02    0.10951E-01   -0.28118E-02 14752   0.244E+00    0.387E-01
DAV:   6    -0.336929667088E+02   -0.28925E-02   -0.21605E-02 12432   0.302E+00    0.757E-01
DAV:   7    -0.336890384567E+02    0.39283E-02   -0.88639E-03 12112   0.186E+00    0.499E-02
DAV:   8    -0.336890715101E+02   -0.33053E-04   -0.79411E-04 11664   0.223E-01    0.470E-02
DAV:   9    -0.336890600286E+02    0.11482E-04   -0.87043E-05 13040   0.137E-01    0.140E-02
DAV:  10    -0.336890615846E+02   -0.15561E-05   -0.68680E-06 12528   0.344E-02    0.303E-03
DAV:  11    -0.336890616681E+02   -0.83452E-07   -0.72994E-07 13704   0.938E-03    0.116E-03
DAV:  12    -0.336890617231E+02   -0.55034E-07   -0.10465E-07 12576   0.390E-03    0.713E-04
DAV:  13    -0.336890617365E+02   -0.13375E-07   -0.20315E-08  6560   0.204E-03    0.141E-04
DAV:  14    -0.336890617384E+02   -0.18590E-08   -0.26914E-09  5904   0.488E-04
   7 F= -.33689062E+02 E0= -.33688587E+02  d E =-.232388E-01  mag=    -0.0000
       N       E                     dE             d eps       ncg     rms          rms(c)
DAV:   1    -0.335975560420E+02    0.91506E-01   -0.17698E+01 12320   0.122E+02    0.779E+00
DAV:   2    -0.345022355653E+02   -0.90468E+00   -0.12385E+01 11776   0.349E+01    0.791E+00
DAV:   3    -0.337467464161E+02    0.75549E+00   -0.27842E+00 11584   0.193E+01    0.223E+00
DAV:   4    -0.337686585152E+02   -0.21912E-01   -0.34850E-01 13728   0.935E+00    0.316E+00
DAV:   5    -0.336971078008E+02    0.71551E-01   -0.19258E-01 12192   0.778E+00    0.534E-01
DAV:   6    -0.337067705490E+02   -0.96627E-02   -0.60054E-02 13568   0.451E+00    0.131E+00
DAV:   7    -0.336953045528E+02    0.11466E-01   -0.28703E-02 12272   0.326E+00    0.111E-01
DAV:   8    -0.336954137093E+02   -0.10916E-03   -0.26357E-03 12864   0.437E-01    0.900E-02
DAV:   9    -0.336953804011E+02    0.33308E-04   -0.28482E-04 12112   0.264E-01    0.225E-02
DAV:  10    -0.336953794127E+02    0.98844E-06   -0.31108E-05 12480   0.797E-02    0.755E-03
DAV:  11    -0.336953785852E+02    0.82747E-06   -0.30472E-06 12384   0.254E-02    0.244E-03
DAV:  12    -0.336953783973E+02    0.18796E-06   -0.34790E-07 12064   0.727E-03    0.625E-04
DAV:  13    -0.336953783456E+02    0.51690E-07   -0.35644E-08  9696   0.172E-03    0.127E-04
DAV:  14    -0.336953783305E+02    0.15054E-07   -0.43754E-09  5952   0.681E-04    0.713E-05
DAV:  15    -0.336953783294E+02    0.11332E-08   -0.83790E-10  5824   0.335E-04
   8 F= -.33695378E+02 E0= -.33695107E+02  d E =-.631659E-02  mag=     0.0000
       N       E                     dE             d eps       ncg     rms          rms(c)
DAV:   1    -0.336880126582E+02    0.73657E-02   -0.10560E+00 12304   0.292E+01    0.190E+00
DAV:   2    -0.337460193150E+02   -0.58007E-01   -0.80797E-01 11792   0.879E+00    0.199E+00
DAV:   3    -0.337016565558E+02    0.44363E-01   -0.16920E-01 11520   0.522E+00    0.846E-01
DAV:   4    -0.336992342234E+02    0.24223E-02   -0.29064E-02 12704   0.303E+00    0.568E-01
DAV:   5    -0.336964753270E+02    0.27589E-02   -0.69433E-03 13232   0.135E+00    0.228E-01
DAV:   6    -0.336969235378E+02   -0.44821E-03   -0.50007E-03 12576   0.156E+00    0.337E-01
DAV:   7    -0.336961295198E+02    0.79402E-03   -0.17710E-03 12416   0.915E-01    0.246E-02
DAV:   8    -0.336961414103E+02   -0.11890E-04   -0.17036E-04 12368   0.105E-01    0.167E-02
DAV:   9    -0.336961416437E+02   -0.23345E-06   -0.11205E-05 12528   0.504E-02    0.476E-03
DAV:  10    -0.336961420617E+02   -0.41799E-06   -0.11340E-06 13584   0.143E-02    0.194E-03
DAV:  11    -0.336961420953E+02   -0.33613E-07   -0.12876E-07 11792   0.468E-03    0.304E-04
DAV:  12    -0.336961421180E+02   -0.22728E-07   -0.93109E-09  6144   0.905E-04    0.123E-04
DAV:  13    -0.336961421227E+02   -0.46803E-08   -0.23682E-09  5952   0.511E-04
   9 F= -.33696142E+02 E0= -.33695817E+02  d E =-.708038E-02  mag=     0.0000
       N       E                     dE             d eps       ncg     rms          rms(c)
DAV:   1    -0.336863654837E+02    0.97766E-02   -0.46588E-01 12320   0.209E+01    0.109E+00
DAV:   2    -0.337121350769E+02   -0.25770E-01   -0.33227E-01 12192   0.530E+00    0.109E+00
DAV:   3    -0.336987927375E+02    0.13342E-01   -0.54673E-02 11712   0.305E+00    0.509E-01
DAV:   4    -0.336980394024E+02    0.75334E-03   -0.10846E-02 12576   0.174E+00    0.344E-01
DAV:   5    -0.336969594984E+02    0.10799E-02   -0.18670E-03 13216   0.723E-01    0.792E-02
DAV:   6    -0.336970297919E+02   -0.70293E-04   -0.77808E-04 14272   0.489E-01    0.145E-01
DAV:   7    -0.336968922511E+02    0.13754E-03   -0.41332E-04 12304   0.437E-01    0.167E-02
DAV:   8    -0.336968912363E+02    0.10148E-05   -0.43091E-05 11824   0.619E-02    0.122E-02
DAV:   9    -0.336968903040E+02    0.93231E-06   -0.56118E-06 12288   0.298E-02    0.396E-03
DAV:  10    -0.336968900340E+02    0.27004E-06   -0.70671E-07 12000   0.116E-02    0.879E-04
DAV:  11    -0.336968899927E+02    0.41284E-07   -0.51236E-08 10528   0.278E-03    0.329E-04
DAV:  12    -0.336968899669E+02    0.25773E-07   -0.56028E-09  5968   0.113E-03    0.694E-05
DAV:  13    -0.336968899604E+02    0.65320E-08   -0.15021E-09  5712   0.408E-04
  10 F= -.33696890E+02 E0= -.33696570E+02  d E =-.747838E-03  mag=    -0.0000
       N       E                     dE             d eps       ncg     rms          rms(c)
DAV:   1    -0.336955494569E+02    0.13405E-02   -0.61866E-02 12320   0.759E+00    0.399E-01
DAV:   2    -0.336989824339E+02   -0.34330E-02   -0.44272E-02 12192   0.192E+00    0.397E-01
DAV:   3    -0.336972106371E+02    0.17718E-02   -0.73111E-03 11648   0.111E+00    0.189E-01
DAV:   4    -0.336971001977E+02    0.11044E-03   -0.14483E-03 12608   0.635E-01    0.124E-01
DAV:   5    -0.336969589045E+02    0.14129E-03   -0.24756E-04 13376   0.260E-01    0.317E-02
DAV:   6    -0.336969842447E+02   -0.25340E-04   -0.16026E-04 13216   0.251E-01    0.733E-02
DAV:   7    -0.336969474760E+02    0.36769E-04   -0.94104E-05 12288   0.213E-01    0.573E-03
DAV:   8    -0.336969474251E+02    0.50912E-07   -0.83380E-06 11824   0.235E-02    0.440E-03
DAV:   9    -0.336969472665E+02    0.15855E-06   -0.77162E-07 13040   0.122E-02    0.146E-03
DAV:  10    -0.336969471714E+02    0.95157E-07   -0.92210E-08 11888   0.442E-03    0.301E-04
DAV:  11    -0.336969471551E+02    0.16287E-07   -0.55807E-09  5904   0.105E-03    0.133E-04
DAV:  12    -0.336969471472E+02    0.78635E-08   -0.17760E-09  5648   0.505E-04
  11 F= -.33696947E+02 E0= -.33696630E+02  d E =-.805024E-03  mag=    -0.0000
       N       E                     dE             d eps       ncg     rms          rms(c)
DAV:   1    -0.337034215384E+02   -0.64744E-02   -0.17944E-01 12064   0.103E+01    0.106E+00
DAV:   2    -0.337147578370E+02   -0.11336E-01   -0.17909E-01 11808   0.464E+00    0.118E+00
DAV:   3    -0.336981969186E+02    0.16561E-01   -0.54392E-02 11632   0.296E+00    0.388E-01
DAV:   4    -0.336976946569E+02    0.50226E-03   -0.64705E-03 12960   0.136E+00    0.235E-01
DAV:   5    -0.336972261826E+02    0.46847E-03   -0.10845E-03 13424   0.512E-01    0.971E-02
DAV:   6    -0.336972706889E+02   -0.44506E-04   -0.76931E-04 12576   0.558E-01    0.125E-01
DAV:   7    -0.336971654263E+02    0.10526E-03   -0.25558E-04 12192   0.326E-01    0.110E-02
DAV:   8    -0.336971671022E+02   -0.16759E-05   -0.21758E-05 12128   0.416E-02    0.623E-03
DAV:   9    -0.336971670728E+02    0.29388E-07   -0.16186E-06 12800   0.188E-02    0.138E-03
DAV:  10    -0.336971672064E+02   -0.13352E-06   -0.15087E-07 12016   0.348E-03    0.576E-04
DAV:  11    -0.336971672402E+02   -0.33810E-07   -0.17722E-08  7024   0.166E-03    0.165E-04
DAV:  12    -0.336971672589E+02   -0.18739E-07   -0.35968E-09  5760   0.689E-04    0.801E-05
DAV:  13    -0.336971672594E+02   -0.48385E-09   -0.95977E-10  5584   0.309E-04
  12 F= -.33697167E+02 E0= -.33696871E+02  d E =-.220112E-03  mag=     0.0000
       N       E                     dE             d eps       ncg     rms          rms(c)
DAV:   1    -0.336971911904E+02   -0.23931E-04   -0.67002E-04 12080   0.633E-01    0.650E-02
DAV:   2    -0.336972356907E+02   -0.44500E-04   -0.66394E-04 11760   0.284E-01    0.719E-02
DAV:   3    -0.336971724128E+02    0.63278E-04   -0.20254E-04 11648   0.180E-01    0.228E-02
DAV:   4    -0.336971707639E+02    0.16490E-05   -0.23240E-05 13104   0.799E-02    0.147E-02
DAV:   5    -0.336971686844E+02    0.20795E-05   -0.40790E-06 13264   0.318E-02    0.579E-03
DAV:   6    -0.336971688074E+02   -0.12301E-06   -0.28613E-06 12576   0.339E-02    0.782E-03
DAV:   7    -0.336971683120E+02    0.49543E-06   -0.10096E-06 12192   0.205E-02    0.675E-04
DAV:   8    -0.336971682517E+02    0.60289E-07   -0.80310E-08 10896   0.253E-03    0.377E-04
DAV:   9    -0.336971682421E+02    0.95388E-08   -0.55566E-09  5600   0.115E-03
  13 F= -.33697168E+02 E0= -.33696871E+02  d E =-.221095E-03  mag=     0.0000
       N       E                     dE             d eps       ncg     rms          rms(c)
DAV:   1    -0.336996052015E+02   -0.24369E-02   -0.43683E-02 12848   0.347E+00    0.518E-01
DAV:   2    -0.337014095570E+02   -0.18044E-02   -0.35048E-02 11760   0.213E+00    0.567E-01
DAV:   3    -0.336975870706E+02    0.38225E-02   -0.11987E-02 11648   0.135E+00    0.187E-01
DAV:   4    -0.336975780863E+02    0.89844E-05   -0.21000E-03 12048   0.742E-01    0.183E-01
DAV:   5    -0.336973163581E+02    0.26173E-03   -0.71849E-04 14368   0.415E-01    0.568E-02
DAV:   6    -0.336973027988E+02    0.13559E-04   -0.14223E-04 13040   0.229E-01    0.293E-02
DAV:   7    -0.336972971068E+02    0.56920E-05   -0.22213E-05 11840   0.848E-02    0.647E-03
DAV:   8    -0.336972965065E+02    0.60031E-06   -0.28286E-06 11968   0.166E-02    0.157E-03
DAV:   9    -0.336972964084E+02    0.98078E-07   -0.23527E-07 11968   0.561E-03    0.704E-04
DAV:  10    -0.336972963499E+02    0.58581E-07   -0.17141E-08  7536   0.152E-03    0.248E-04
DAV:  11    -0.336972963342E+02    0.15640E-07   -0.34594E-09  5824   0.845E-04    0.801E-05
DAV:  12    -0.336972963321E+02    0.20827E-08   -0.12795E-09  5536   0.349E-04
  14 F= -.33697296E+02 E0= -.33697020E+02  d E =-.128090E-03  mag=    -0.0000
       N       E                     dE             d eps       ncg     rms          rms(c)
DAV:   1    -0.336976462548E+02   -0.34992E-03   -0.64215E-03 12864   0.133E+00    0.199E-01
DAV:   2    -0.336979152971E+02   -0.26904E-03   -0.51556E-03 11776   0.816E-01    0.218E-01
DAV:   3    -0.336973517090E+02    0.56359E-03   -0.17673E-03 11648   0.518E-01    0.728E-02
DAV:   4    -0.336973484640E+02    0.32450E-05   -0.31133E-04 12032   0.284E-01    0.693E-02
DAV:   5    -0.336973104864E+02    0.37978E-04   -0.10499E-04 14496   0.158E-01    0.223E-02
DAV:   6    -0.336973082497E+02    0.22367E-05   -0.21144E-05 12928   0.892E-02    0.110E-02
DAV:   7    -0.336973073752E+02    0.87448E-06   -0.32019E-06 11776   0.321E-02    0.246E-03
DAV:   8    -0.336973071510E+02    0.22417E-06   -0.41323E-07 12000   0.632E-03    0.602E-04
DAV:   9    -0.336973071111E+02    0.39972E-07   -0.33421E-08 10464   0.211E-03    0.263E-04
DAV:  10    -0.336973070874E+02    0.23663E-07   -0.26832E-09  5680   0.612E-04    0.930E-05
DAV:  11    -0.336973070831E+02    0.42655E-08   -0.66323E-10  5632   0.351E-04
  15 F= -.33697307E+02 E0= -.33697038E+02  d E =-.138841E-03  mag=    -0.0000
       N       E                     dE             d eps       ncg     rms          rms(c)
DAV:   1    -0.336979468308E+02   -0.63974E-03   -0.11245E-02 12960   0.130E+00    0.247E-01
DAV:   2    -0.336982028726E+02   -0.25604E-03   -0.69459E-03 11856   0.978E-01    0.264E-01
DAV:   3    -0.336974342721E+02    0.76860E-03   -0.26193E-03 11680   0.693E-01    0.123E-01
DAV:   4    -0.336974010624E+02    0.33210E-04   -0.79428E-04 11728   0.493E-01    0.921E-02
DAV:   5    -0.336973273303E+02    0.73732E-04   -0.13746E-04 14832   0.183E-01    0.154E-02
DAV:   6    -0.336973264391E+02    0.89122E-06   -0.17236E-05 12016   0.436E-02    0.570E-03
DAV:   7    -0.336973264803E+02   -0.41253E-07   -0.17718E-06 12032   0.244E-02    0.510E-03
DAV:   8    -0.336973264831E+02   -0.28049E-08   -0.53177E-07 11872   0.133E-02    0.132E-03
DAV:   9    -0.336973266083E+02   -0.12516E-06   -0.73984E-08 11280   0.196E-03    0.337E-04
DAV:  10    -0.336973266142E+02   -0.59372E-08   -0.41521E-09  5840   0.813E-04
  16 F= -.33697327E+02 E0= -.33697064E+02  d E =-.195311E-04  mag=    -0.0000
       N       E                     dE             d eps       ncg     rms          rms(c)
DAV:   1    -0.336973603075E+02   -0.33699E-04   -0.59613E-04 12944   0.299E-01    0.568E-02
DAV:   2    -0.336973727969E+02   -0.12489E-04   -0.36749E-04 11856   0.225E-01    0.609E-02
DAV:   3    -0.336973328453E+02    0.39952E-04   -0.13905E-04 11680   0.160E-01    0.286E-02
DAV:   4    -0.336973310317E+02    0.18137E-05   -0.42359E-05 11744   0.114E-01    0.211E-02
DAV:   5    -0.336973271831E+02    0.38486E-05   -0.72494E-06 14832   0.421E-02    0.354E-03
DAV:   6    -0.336973271495E+02    0.33615E-07   -0.91463E-07 12064   0.102E-02    0.148E-03
DAV:   7    -0.336973271549E+02   -0.54642E-08   -0.10286E-07 11712   0.588E-03    0.109E-03
DAV:   8    -0.336973271834E+02   -0.28516E-07   -0.23468E-08  6208   0.276E-03    0.304E-04
DAV:   9    -0.336973272113E+02   -0.27885E-07   -0.49055E-09  5648   0.507E-04    0.791E-05
DAV:  10    -0.336973272130E+02   -0.16917E-08   -0.69124E-10  5504   0.289E-04
  17 F= -.33697327E+02 E0= -.33697066E+02  d E =-.201299E-04  mag=     0.0000
       N       E                     dE             d eps       ncg     rms          rms(c)
DAV:   1    -0.336978662276E+02   -0.53902E-03   -0.10399E-02 12048   0.196E+00    0.265E-01
DAV:   2    -0.336984224935E+02   -0.55627E-03   -0.97567E-03 11792   0.113E+00    0.291E-01
DAV:   3    -0.336973936205E+02    0.10289E-02   -0.31409E-03 11632   0.708E-01    0.828E-02
DAV:   4    -0.336973937619E+02   -0.14138E-06   -0.40410E-04 12288   0.379E-01    0.820E-02
DAV:   5    -0.336973356478E+02    0.58114E-04   -0.12097E-04 14400   0.193E-01    0.117E-02
DAV:   6    -0.336973403165E+02   -0.46687E-05   -0.31360E-05 14112   0.931E-02    0.287E-02
DAV:   7    -0.336973351049E+02    0.52116E-05   -0.16028E-05 12096   0.744E-02    0.320E-03
DAV:   8    -0.336973348596E+02    0.24532E-06   -0.10730E-06 11728   0.897E-03    0.116E-03
DAV:   9    -0.336973347856E+02    0.73971E-07   -0.76697E-08 10928   0.341E-03    0.484E-04
DAV:  10    -0.336973347560E+02    0.29630E-07   -0.86827E-09  5792   0.138E-03    0.140E-04
DAV:  11    -0.336973347415E+02    0.14521E-07   -0.14326E-09  5600   0.494E-04    0.429E-05
DAV:  12    -0.336973347391E+02    0.23210E-08   -0.55703E-10  5552   0.256E-04
  18 F= -.33697335E+02 E0= -.33697078E+02  d E =-.752611E-05  mag=     0.0000
       N       E                     dE             d eps       ncg     rms          rms(c)
DAV:   1    -0.336973567529E+02   -0.22011E-04   -0.41522E-04 12032   0.391E-01    0.529E-02
DAV:   2    -0.336973771215E+02   -0.20369E-04   -0.39001E-04 11792   0.226E-01    0.582E-02
DAV:   3    -0.336973371849E+02    0.39937E-04   -0.12527E-04 11648   0.141E-01    0.167E-02
DAV:   4    -0.336973372183E+02   -0.33449E-07   -0.16294E-05 12272   0.757E-02    0.163E-02
DAV:   5    -0.336973351314E+02    0.20870E-05   -0.48433E-06 14400   0.381E-02    0.255E-03
DAV:   6    -0.336973353571E+02   -0.22575E-06   -0.13249E-06 13840   0.195E-02    0.585E-03
DAV:   7    -0.336973351681E+02    0.18896E-06   -0.65994E-07 12144   0.152E-02    0.638E-04
DAV:   8    -0.336973352215E+02   -0.53371E-07   -0.43680E-08  9840   0.181E-03    0.219E-04
DAV:   9    -0.336973352353E+02   -0.13764E-07   -0.29591E-09  5536   0.696E-04    0.975E-05
DAV:  10    -0.336973352411E+02   -0.58590E-08   -0.73555E-10  5424   0.346E-04
  19 F= -.33697335E+02 E0= -.33697077E+02  d E =-.802811E-05  mag=    -0.0000
