       N       E                     dE             d eps       ncg     rms          rms(c)
DAV:   1     0.159713775316E+04    0.15971E+04   -0.68573E+04  6912   0.201E+03
DAV:   2     0.719976117393E+02   -0.15251E+04   -0.14684E+04  6080   0.643E+02
DAV:   3    -0.492324938755E+02   -0.12123E+03   -0.10767E+03  6576   0.201E+02
DAV:   4    -0.536486467130E+02   -0.44162E+01   -0.43641E+01  6712   0.386E+01
DAV:   5    -0.537384823864E+02   -0.89836E-01   -0.89774E-01  6904   0.507E+00    0.266E+01
DAV:   6    -0.595314549369E+02   -0.57930E+01   -0.93858E+01  6824   0.106E+02    0.466E+01
DAV:   7    -0.536397475667E+02    0.58917E+01   -0.67448E+01  6676   0.856E+01    0.227E+01
DAV:   8    -0.464145095133E+02    0.72252E+01   -0.11953E+01  6696   0.350E+01    0.105E+01
DAV:   9    -0.463346401763E+02    0.79869E-01   -0.31468E+00  7940   0.256E+01    0.115E+01
DAV:  10    -0.460811822085E+02    0.25346E+00   -0.12109E+00  8296   0.156E+01    0.101E+01
DAV:  11    -0.458265056153E+02    0.25468E+00   -0.51950E-01  7112   0.996E+00    0.432E+00
DAV:  12    -0.458013127993E+02    0.25193E-01   -0.21579E-01  7976   0.821E+00    0.265E+00
DAV:  13    -0.457933440344E+02    0.79688E-02   -0.65016E-02  6936   0.259E+00    0.209E+00
DAV:  14    -0.457726652530E+02    0.20679E-01   -0.16602E-02  7656   0.259E+00    0.396E-01
DAV:  15    -0.457729013523E+02   -0.23610E-03   -0.70853E-03  7568   0.668E-01    0.145E-01
DAV:  16    -0.457730427781E+02   -0.14143E-03   -0.99499E-04  6576   0.291E-01    0.739E-02
DAV:  17    -0.457731613568E+02   -0.11858E-03   -0.14462E-04  7880   0.205E-01    0.147E-01
DAV:  18    -0.457731266181E+02    0.34739E-04   -0.50481E-05  7612   0.123E-01    0.874E-02
DAV:  19    -0.457731215440E+02    0.50740E-05   -0.16141E-05  8152   0.518E-02    0.628E-02
DAV:  20    -0.457731115990E+02    0.99451E-05   -0.13194E-05  6744   0.506E-02    0.706E-02
DAV:  21    -0.457731369720E+02   -0.25373E-04   -0.46267E-05  6840   0.105E-01    0.558E-02
DAV:  22    -0.457731641639E+02   -0.27192E-04   -0.96366E-05  7548   0.125E-01    0.350E-02
DAV:  23    -0.457732114087E+02   -0.47245E-04   -0.22815E-04  7236   0.183E-01    0.341E-02
DAV:  24    -0.457732026763E+02    0.87324E-05   -0.81975E-05  6552   0.112E-01    0.401E-02
DAV:  25    -0.457732089308E+02   -0.62545E-05   -0.48446E-06  6500   0.294E-02    0.393E-02
DAV:  26    -0.457732012912E+02    0.76396E-05   -0.31496E-06  6680   0.260E-02    0.392E-02
DAV:  27    -0.457732064008E+02   -0.51096E-05   -0.17859E-03  6852   0.605E-01    0.552E-02
DAV:  28    -0.457733211533E+02   -0.11475E-03   -0.36597E-04  6496   0.233E-01    0.470E-02
DAV:  29    -0.457732736296E+02    0.47524E-04   -0.62978E-04  6684   0.341E-01    0.544E-02
DAV:  30    -0.457733393588E+02   -0.65729E-04   -0.24028E-04  6560   0.231E-01    0.180E-02
DAV:  31    -0.457733313755E+02    0.79833E-05   -0.57215E-05  6616   0.108E-01    0.186E-02
DAV:  32    -0.457733392021E+02   -0.78267E-05   -0.47056E-05  6628   0.102E-01    0.123E-02
DAV:  33    -0.457733384877E+02    0.71448E-06   -0.16771E-05  6716   0.649E-02    0.822E-03
DAV:  34    -0.457733398931E+02   -0.14054E-05   -0.13849E-05  6684   0.572E-02    0.483E-03
DAV:  35    -0.457733405961E+02   -0.70308E-06   -0.20755E-06  6684   0.196E-02    0.132E-03
DAV:  36    -0.457733404522E+02    0.14394E-06   -0.27327E-07  7508   0.631E-03    0.196E-03
DAV:  37    -0.457733404733E+02   -0.21126E-07   -0.54687E-08  5624   0.252E-03    0.123E-03
DAV:  38    -0.457733405270E+02   -0.53686E-07   -0.82848E-08  6240   0.422E-03    0.331E-04
DAV:  39    -0.457733405264E+02    0.63301E-09   -0.16974E-08  4068   0.897E-04
   1 F= -.45773341E+02 E0= -.45773824E+02  d E =-.457733E+02  mag=     2.4348
       N       E                     dE             d eps       ncg     rms          rms(c)
DAV:   1    -0.506205887097E+02   -0.48472E+01   -0.50020E+01  6312   0.990E+01    0.223E+01
DAV:   2    -0.512650874632E+02   -0.64450E+00   -0.59431E+01  6716   0.700E+01    0.232E+01
DAV:   3    -0.527628705319E+02   -0.14978E+01   -0.24152E+01  6752   0.690E+01    0.359E+01
DAV:   4    -0.475293966900E+02    0.52335E+01   -0.24826E+01  6848   0.372E+01    0.171E+01
DAV:   5    -0.458587349772E+02    0.16707E+01   -0.30106E+00  6760   0.237E+01    0.427E+00
DAV:   6    -0.458742125332E+02   -0.15478E-01   -0.66629E-01  7300   0.864E+00    0.450E+00
DAV:   7    -0.458008006550E+02    0.73412E-01   -0.19750E-01  6680   0.697E+00    0.196E+00
DAV:   8    -0.457819450605E+02    0.18856E-01   -0.52892E-02  7596   0.275E+00    0.710E-01
DAV:   9    -0.457845530605E+02   -0.26080E-02   -0.12307E-02  6712   0.979E-01    0.691E-01
DAV:  10    -0.457863320158E+02   -0.17790E-02   -0.55024E-03  6872   0.126E+00    0.459E-01
DAV:  11    -0.457888964251E+02   -0.25644E-02   -0.29072E-03  8244   0.526E-01    0.565E-01
DAV:  12    -0.457876411067E+02    0.12553E-02   -0.94585E-04  6552   0.373E-01    0.567E-01
DAV:  13    -0.457896765614E+02   -0.20355E-02   -0.11533E-03  6656   0.505E-01    0.551E-01
DAV:  14    -0.457833794533E+02    0.62971E-02   -0.31842E-02  7012   0.242E+00    0.121E+00
DAV:  15    -0.457923101316E+02   -0.89307E-02   -0.15851E-02  6684   0.180E+00    0.333E-01
DAV:  16    -0.457923211448E+02   -0.11013E-04   -0.19309E-03  7400   0.336E-01    0.332E-01
DAV:  17    -0.457929365630E+02   -0.61542E-03   -0.61673E-04  7368   0.379E-01    0.102E-01
DAV:  18    -0.457930275920E+02   -0.91029E-04   -0.20718E-04  7264   0.120E-01    0.460E-02
DAV:  19    -0.457929201573E+02    0.10743E-03   -0.28686E-04  6840   0.224E-01    0.133E-01
DAV:  20    -0.457930463290E+02   -0.12617E-03   -0.12801E-04  6620   0.171E-01    0.303E-02
DAV:  21    -0.457930488965E+02   -0.25676E-05   -0.40812E-05  7652   0.644E-02    0.189E-02
DAV:  22    -0.457930529198E+02   -0.40232E-05   -0.61679E-06  6560   0.309E-02    0.704E-03
DAV:  23    -0.457930531992E+02   -0.27945E-06   -0.96046E-07  7388   0.985E-03    0.181E-03
DAV:  24    -0.457930531819E+02    0.17295E-07   -0.18128E-07  6408   0.550E-03    0.146E-03
DAV:  25    -0.457930532298E+02   -0.47869E-07   -0.56496E-08  5328   0.399E-03    0.130E-03
DAV:  26    -0.457930532205E+02    0.93241E-08   -0.97330E-09  3148   0.142E-03
   2 F= -.45793053E+02 E0= -.45793145E+02  d E =-.197127E-01  mag=     3.2257
       N       E                     dE             d eps       ncg     rms          rms(c)
DAV:   1    -0.461992096877E+02   -0.40616E+00   -0.42028E+00  6316   0.290E+01    0.634E+00
DAV:   2    -0.462148584203E+02   -0.15649E-01   -0.40450E+00  6692   0.207E+01    0.735E+00
DAV:   3    -0.464653381490E+02   -0.25048E+00   -0.22595E+00  6896   0.237E+01    0.143E+01
DAV:   4    -0.458225744714E+02    0.64276E+00   -0.12711E+00  6860   0.156E+01    0.280E+00
DAV:   5    -0.458022946542E+02    0.20280E-01   -0.14000E-01  7604   0.519E+00    0.999E-01
DAV:   6    -0.458054194952E+02   -0.31248E-02   -0.38965E-02  6764   0.274E+00    0.140E+00
DAV:   7    -0.457994262206E+02    0.59933E-02   -0.13394E-02  6632   0.219E+00    0.523E-01
DAV:   8    -0.457977894407E+02    0.16368E-02   -0.45855E-03  7144   0.880E-01    0.162E-01
DAV:   9    -0.457977638763E+02    0.25564E-04   -0.73773E-04  6352   0.311E-01    0.762E-02
DAV:  10    -0.457977392492E+02    0.24627E-04   -0.97108E-05  7212   0.107E-01    0.293E-02
DAV:  11    -0.457977368369E+02    0.24123E-05   -0.13969E-05  7540   0.360E-02    0.112E-02
DAV:  12    -0.457977368703E+02   -0.33480E-07   -0.43734E-06  6692   0.202E-02    0.649E-03
DAV:  13    -0.457977366190E+02    0.25137E-06   -0.40513E-07  7352   0.696E-03    0.358E-03
DAV:  14    -0.457977364911E+02    0.12789E-06   -0.13636E-07  6552   0.470E-03    0.104E-03
DAV:  15    -0.457977364601E+02    0.30966E-07   -0.39045E-08  4980   0.183E-03    0.291E-04
DAV:  16    -0.457977364557E+02    0.44201E-08   -0.68141E-09  3144   0.743E-04
   3 F= -.45797736E+02 E0= -.45797788E+02  d E =-.243959E-01  mag=     3.1608
       N       E                     dE             d eps       ncg     rms          rms(c)
DAV:   1    -0.456371265715E+02    0.16061E+00   -0.37364E+00  8760   0.571E+01    0.105E+00
DAV:   2    -0.458058238362E+02   -0.16870E+00   -0.17620E+00  6172   0.775E+00    0.933E-01
DAV:   3    -0.458143452927E+02   -0.85215E-02   -0.84279E-02  7052   0.453E+00    0.160E+00
DAV:   4    -0.458049620049E+02    0.93833E-02   -0.20086E-02  6996   0.264E+00    0.567E-01
DAV:   5    -0.458045755498E+02    0.38646E-03   -0.46137E-03  7152   0.125E+00    0.432E-01
DAV:   6    -0.458036371883E+02    0.93836E-03   -0.14616E-03  7280   0.741E-01    0.195E-01
DAV:   7    -0.458046798889E+02   -0.10427E-02   -0.22278E-03  7048   0.103E+00    0.630E-01
DAV:   8    -0.458033180310E+02    0.13619E-02   -0.16221E-03  6780   0.872E-01    0.430E-02
DAV:   9    -0.458033488277E+02   -0.30797E-04   -0.20341E-04  6988   0.101E-01    0.222E-02
DAV:  10    -0.458033495671E+02   -0.73947E-06   -0.11624E-05  7068   0.356E-02    0.117E-02
DAV:  11    -0.458033490053E+02    0.56182E-06   -0.14543E-06  8492   0.170E-02    0.454E-03
DAV:  12    -0.458033488115E+02    0.19384E-06   -0.51658E-07  6676   0.662E-03    0.160E-03
DAV:  13    -0.458033487813E+02    0.30213E-07   -0.57786E-08  5844   0.210E-03    0.709E-04
DAV:  14    -0.458033487507E+02    0.30555E-07   -0.55292E-09  3192   0.107E-03    0.208E-04
DAV:  15    -0.458033487347E+02    0.16036E-07   -0.33297E-09  3128   0.507E-04    0.163E-04
DAV:  16    -0.458033487290E+02    0.56862E-08   -0.80043E-10  3088   0.317E-04
   4 F= -.45803349E+02 E0= -.45803442E+02  d E =-.561227E-02  mag=     3.1659
       N       E                     dE             d eps       ncg     rms          rms(c)
DAV:   1    -0.456798158254E+02    0.12353E+00   -0.28248E+00  8868   0.495E+01    0.913E-01
DAV:   2    -0.458065695590E+02   -0.12675E+00   -0.13260E+00  6172   0.669E+00    0.775E-01
DAV:   3    -0.458122020374E+02   -0.56325E-02   -0.61076E-02  6960   0.384E+00    0.128E+00
DAV:   4    -0.458059626958E+02    0.62393E-02   -0.14224E-02  6928   0.228E+00    0.464E-01
DAV:   5    -0.458058668199E+02    0.95876E-04   -0.33446E-03  7236   0.104E+00    0.408E-01
DAV:   6    -0.458050832237E+02    0.78360E-03   -0.12240E-03  7152   0.677E-01    0.170E-01
DAV:   7    -0.458058459957E+02   -0.76277E-03   -0.16090E-03  7096   0.885E-01    0.537E-01
DAV:   8    -0.458048459736E+02    0.10000E-02   -0.11930E-03  6816   0.758E-01    0.376E-02
DAV:   9    -0.458048681117E+02   -0.22138E-04   -0.15151E-04  6960   0.878E-02    0.178E-02
DAV:  10    -0.458048687032E+02   -0.59149E-06   -0.84237E-06  7072   0.288E-02    0.101E-02
DAV:  11    -0.458048682080E+02    0.49517E-06   -0.10292E-06  8496   0.145E-02    0.388E-03
DAV:  12    -0.458048680264E+02    0.18158E-06   -0.36577E-07  6804   0.556E-03    0.143E-03
DAV:  13    -0.458048679991E+02    0.27288E-07   -0.44365E-08  5716   0.190E-03    0.621E-04
DAV:  14    -0.458048679725E+02    0.26645E-07   -0.41209E-09  3180   0.877E-04    0.189E-04
DAV:  15    -0.458048679609E+02    0.11602E-07   -0.25202E-09  3132   0.427E-04    0.124E-04
DAV:  16    -0.458048679561E+02    0.47803E-08   -0.59545E-10  3112   0.259E-04
   5 F= -.45804868E+02 E0= -.45804982E+02  d E =-.713150E-02  mag=     3.1673
       N       E                     dE             d eps       ncg     rms          rms(c)
DAV:   1    -0.458155249242E+02   -0.10657E-01   -0.10865E-01  6344   0.445E+00    0.103E+00
DAV:   2    -0.458165250025E+02   -0.10001E-02   -0.10464E-01  6728   0.338E+00    0.131E+00
DAV:   3    -0.458255256340E+02   -0.90006E-02   -0.59981E-02  6860   0.466E+00    0.264E+00
DAV:   4    -0.458044816384E+02    0.21044E-01   -0.38400E-02  6844   0.334E+00    0.223E-01
DAV:   5    -0.458051193438E+02   -0.63771E-03   -0.38400E-03  7076   0.750E-01    0.220E-01
DAV:   6    -0.458049820446E+02    0.13730E-03   -0.10878E-03  6604   0.518E-01    0.143E-01
DAV:   7    -0.458049586855E+02    0.23359E-04   -0.26010E-04  6724   0.332E-01    0.133E-01
DAV:   8    -0.458048808282E+02    0.77857E-04   -0.15399E-04  6668   0.204E-01    0.316E-02
DAV:   9    -0.458048789561E+02    0.18720E-05   -0.19750E-05  7076   0.454E-02    0.135E-02
DAV:  10    -0.458048782654E+02    0.69074E-06   -0.35499E-06  7276   0.163E-02    0.473E-03
DAV:  11    -0.458048777830E+02    0.48244E-06   -0.63230E-07  6484   0.851E-03    0.172E-03
DAV:  12    -0.458048776658E+02    0.11721E-06   -0.72675E-08  5872   0.232E-03    0.986E-04
DAV:  13    -0.458048776353E+02    0.30468E-07   -0.96617E-09  3180   0.137E-03    0.248E-04
DAV:  14    -0.458048776268E+02    0.84510E-08   -0.41944E-09  3112   0.497E-04
   6 F= -.45804878E+02 E0= -.45804995E+02  d E =-.967074E-05  mag=     3.1560
       N       E                     dE             d eps       ncg     rms          rms(c)
DAV:   1    -0.458072022119E+02   -0.23246E-02   -0.23351E-02  6332   0.206E+00    0.482E-01
DAV:   2    -0.458074942895E+02   -0.29208E-03   -0.22846E-02  6716   0.159E+00    0.631E-01
DAV:   3    -0.458094472040E+02   -0.19529E-02   -0.13834E-02  6864   0.227E+00    0.118E+00
DAV:   4    -0.458047835581E+02    0.46636E-02   -0.67892E-03  6812   0.160E+00    0.845E-02
DAV:   5    -0.458049712611E+02   -0.18770E-03   -0.89464E-04  6632   0.338E-01    0.144E-01
DAV:   6    -0.458049178370E+02    0.53424E-04   -0.20882E-04  6620   0.245E-01    0.617E-02
DAV:   7    -0.458049089738E+02    0.88632E-05   -0.52124E-05  6616   0.150E-01    0.483E-02
DAV:   8    -0.458048990795E+02    0.98942E-05   -0.36023E-05  6640   0.859E-02    0.226E-02
DAV:   9    -0.458048995483E+02   -0.46876E-06   -0.43080E-06  7168   0.263E-02    0.112E-02
DAV:  10    -0.458049001767E+02   -0.62838E-06   -0.10307E-06  8584   0.130E-02    0.273E-03
DAV:  11    -0.458049004324E+02   -0.25568E-06   -0.50583E-07  6584   0.614E-03    0.142E-03
DAV:  12    -0.458049004889E+02   -0.56567E-07   -0.34169E-08  5112   0.237E-03    0.410E-04
DAV:  13    -0.458049004993E+02   -0.10346E-07   -0.60736E-09  3120   0.657E-04    0.304E-04
DAV:  14    -0.458049005139E+02   -0.14617E-07   -0.17890E-09  3100   0.541E-04    0.935E-05
DAV:  15    -0.458049005126E+02    0.13024E-08   -0.33612E-10  3092   0.176E-04
   7 F= -.45804901E+02 E0= -.45805016E+02  d E =-.325565E-04  mag=     3.1613
