       N       E                     dE             d eps       ncg     rms          rms(c)
DAV:   1    -0.458214796350E+02   -0.45821E+02   -0.10037E-01  6080   0.274E+00    0.889E-01
DAV:   2    -0.458239595376E+02   -0.24799E-02   -0.91256E-03  7388   0.172E+00    0.104E+00
DAV:   3    -0.458258568418E+02   -0.18973E-02   -0.21365E-02  6772   0.272E+00    0.128E+00
DAV:   4    -0.458235472754E+02    0.23096E-02   -0.78662E-03  7260   0.173E+00    0.841E-01
DAV:   5    -0.458222069728E+02    0.13403E-02   -0.37575E-03  7064   0.139E+00    0.331E-01
DAV:   6    -0.458224765882E+02   -0.26962E-03   -0.93499E-04  8140   0.553E-01    0.210E-01
DAV:   7    -0.458224828563E+02   -0.62682E-05   -0.11482E-05  6908   0.644E-01    0.156E-01
DAV:   8    -0.458224471333E+02    0.35723E-04   -0.17887E-04  7052   0.309E-01    0.464E-02
DAV:   9    -0.458223979363E+02    0.49197E-04   -0.45089E-05  6976   0.593E-02    0.228E-02
DAV:  10    -0.458224066862E+02   -0.87499E-05   -0.53430E-06  6972   0.324E-02    0.787E-03
DAV:  11    -0.458224051651E+02    0.15211E-05   -0.12147E-06  7060   0.108E-02    0.370E-03
DAV:  12    -0.458224045168E+02    0.64834E-06   -0.25529E-07  6592   0.611E-03    0.160E-03
DAV:  13    -0.458224069019E+02   -0.23851E-05   -0.28750E-08  4820   0.166E-03    0.683E-04
DAV:  14    -0.458224061292E+02    0.77270E-06   -0.10755E-08  3292   0.112E-03    0.198E-04
DAV:  15    -0.458224060634E+02    0.65811E-07   -0.25558E-09  3112   0.408E-04    0.869E-05
DAV:  16    -0.458224061265E+02   -0.63079E-07   -0.44382E-10  3104   0.175E-04    0.427E-05
DAV:  17    -0.458224061411E+02   -0.14563E-07   -0.10195E-10  3112   0.956E-05    0.188E-05
DAV:  18    -0.458224061060E+02    0.35034E-07   -0.35135E-11  3100   0.480E-05    0.800E-06
DAV:  19    -0.458224061137E+02   -0.76398E-08   -0.93639E-12  3080   0.248E-05
   1 F= -.45822406E+02 E0= -.45822406E+02  d E =0.000000E+00  mag=     2.5656
