   6   6   0   0
  0.1160355E+02  0.5848586E-09  0.5848586E-09  0.3420242E-09  0.5000000E-15
  1.000000000000000E-004
  CAR 
 unknown system                          
     26.28483601    -58.73001661  301      8.61809665      1.00000000
    -58.730  0.0000E+00  0.0000E+00  0.0000E+00  0.0000E+00
    -58.447  0.0000E+00  0.0000E+00  0.0000E+00  0.0000E+00
    -58.163  0.0000E+00  0.0000E+00  0.0000E+00  0.0000E+00
    -57.880  0.0000E+00  0.0000E+00  0.0000E+00  0.0000E+00
    -57.596  0.0000E+00  0.0000E+00  0.0000E+00  0.0000E+00
    -57.313  0.0000E+00  0.0000E+00  0.0000E+00  0.0000E+00
    -57.030  0.0000E+00  0.0000E+00  0.0000E+00  0.0000E+00
    -56.746  0.0000E+00  0.0000E+00  0.0000E+00  0.0000E+00
    -56.463  0.0000E+00  0.0000E+00  0.0000E+00  0.0000E+00
    -56.180  0.0000E+00  0.0000E+00  0.0000E+00  0.0000E+00
    -55.896  0.0000E+00  0.0000E+00  0.0000E+00  0.0000E+00
    -55.613  0.0000E+00  0.0000E+00  0.0000E+00  0.0000E+00
    -55.329  0.0000E+00  0.0000E+00  0.0000E+00  0.0000E+00
    -55.046  0.0000E+00  0.0000E+00  0.0000E+00  0.0000E+00
    -54.763  0.7902E+02  0.7902E+02  0.4700E+01  0.4700E+01
    -54.479  0.0000E+00  0.0000E+00  0.1100E+02  0.1100E+02
    -54.196  0.0000E+00  0.0000E+00  0.1200E+02  0.1200E+02
    -53.913  0.0000E+00  0.0000E+00  0.1200E+02  0.1200E+02
    -53.629  0.0000E+00  0.0000E+00  0.1200E+02  0.1200E+02
    -53.346  0.0000E+00  0.0000E+00  0.1200E+02  0.1200E+02
    -53.062  0.0000E+00  0.0000E+00  0.1200E+02  0.1200E+02
    -52.779  0.0000E+00  0.0000E+00  0.1200E+02  0.1200E+02
    -52.496  0.0000E+00  0.0000E+00  0.1200E+02  0.1200E+02
    -52.212  0.0000E+00  0.0000E+00  0.1200E+02  0.1200E+02
    -51.929  0.0000E+00  0.0000E+00  0.1200E+02  0.1200E+02
    -51.645  0.0000E+00  0.0000E+00  0.1200E+02  0.1200E+02
    -51.362  0.0000E+00  0.0000E+00  0.1200E+02  0.1200E+02
    -51.079  0.0000E+00  0.0000E+00  0.1200E+02  0.1200E+02
    -50.795  0.0000E+00  0.0000E+00  0.1200E+02  0.1200E+02
    -50.512  0.0000E+00  0.0000E+00  0.1200E+02  0.1200E+02
    -50.229  0.0000E+00  0.0000E+00  0.1200E+02  0.1200E+02
    -49.945  0.0000E+00  0.0000E+00  0.1200E+02  0.1200E+02
    -49.662  0.0000E+00  0.0000E+00  0.1200E+02  0.1200E+02
    -49.378  0.0000E+00  0.0000E+00  0.1200E+02  0.1200E+02
    -49.095  0.0000E+00  0.0000E+00  0.1200E+02  0.1200E+02
    -48.812  0.0000E+00  0.0000E+00  0.1200E+02  0.1200E+02
    -48.528  0.0000E+00  0.0000E+00  0.1200E+02  0.1200E+02
    -48.245  0.0000E+00  0.0000E+00  0.1200E+02  0.1200E+02
    -47.961  0.0000E+00  0.0000E+00  0.1200E+02  0.1200E+02
    -47.678  0.0000E+00  0.0000E+00  0.1200E+02  0.1200E+02
    -47.395  0.0000E+00  0.0000E+00  0.1200E+02  0.1200E+02
    -47.111  0.0000E+00  0.0000E+00  0.1200E+02  0.1200E+02
    -46.828  0.0000E+00  0.0000E+00  0.1200E+02  0.1200E+02
    -46.545  0.0000E+00  0.0000E+00  0.1200E+02  0.1200E+02
    -46.261  0.0000E+00  0.0000E+00  0.1200E+02  0.1200E+02
    -45.978  0.0000E+00  0.0000E+00  0.1200E+02  0.1200E+02
    -45.694  0.0000E+00  0.0000E+00  0.1200E+02  0.1200E+02
    -45.411  0.0000E+00  0.0000E+00  0.1200E+02  0.1200E+02
    -45.128  0.0000E+00  0.0000E+00  0.1200E+02  0.1200E+02
    -44.844  0.0000E+00  0.0000E+00  0.1200E+02  0.1200E+02
    -44.561  0.0000E+00  0.0000E+00  0.1200E+02  0.1200E+02
    -44.277  0.0000E+00  0.0000E+00  0.1200E+02  0.1200E+02
    -43.994  0.0000E+00  0.0000E+00  0.1200E+02  0.1200E+02
    -43.711  0.0000E+00  0.0000E+00  0.1200E+02  0.1200E+02
    -43.427  0.0000E+00  0.0000E+00  0.1200E+02  0.1200E+02
    -43.144  0.0000E+00  0.0000E+00  0.1200E+02  0.1200E+02
    -42.861  0.0000E+00  0.0000E+00  0.1200E+02  0.1200E+02
    -42.577  0.0000E+00  0.0000E+00  0.1200E+02  0.1200E+02
    -42.294  0.0000E+00  0.0000E+00  0.1200E+02  0.1200E+02
    -42.010  0.0000E+00  0.0000E+00  0.1200E+02  0.1200E+02
    -41.727  0.0000E+00  0.0000E+00  0.1200E+02  0.1200E+02
    -41.444  0.0000E+00  0.0000E+00  0.1200E+02  0.1200E+02
    -41.160  0.0000E+00  0.0000E+00  0.1200E+02  0.1200E+02
    -40.877  0.0000E+00  0.0000E+00  0.1200E+02  0.1200E+02
    -40.594  0.0000E+00  0.0000E+00  0.1200E+02  0.1200E+02
    -40.310  0.0000E+00  0.0000E+00  0.1200E+02  0.1200E+02
    -40.027  0.0000E+00  0.0000E+00  0.1200E+02  0.1200E+02
    -39.743  0.0000E+00  0.0000E+00  0.1200E+02  0.1200E+02
    -39.460  0.0000E+00  0.0000E+00  0.1200E+02  0.1200E+02
    -39.177  0.0000E+00  0.0000E+00  0.1200E+02  0.1200E+02
    -38.893  0.0000E+00  0.0000E+00  0.1200E+02  0.1200E+02
    -38.610  0.0000E+00  0.0000E+00  0.1200E+02  0.1200E+02
    -38.326  0.0000E+00  0.0000E+00  0.1200E+02  0.1200E+02
    -38.043  0.0000E+00  0.0000E+00  0.1200E+02  0.1200E+02
    -37.760  0.0000E+00  0.0000E+00  0.1200E+02  0.1200E+02
    -37.476  0.0000E+00  0.0000E+00  0.1200E+02  0.1200E+02
    -37.193  0.0000E+00  0.0000E+00  0.1200E+02  0.1200E+02
    -36.910  0.0000E+00  0.0000E+00  0.1200E+02  0.1200E+02
    -36.626  0.0000E+00  0.0000E+00  0.1200E+02  0.1200E+02
    -36.343  0.0000E+00  0.0000E+00  0.1200E+02  0.1200E+02
    -36.059  0.0000E+00  0.0000E+00  0.1200E+02  0.1200E+02
    -35.776  0.0000E+00  0.0000E+00  0.1200E+02  0.1200E+02
    -35.493  0.0000E+00  0.0000E+00  0.1200E+02  0.1200E+02
    -35.209  0.0000E+00  0.0000E+00  0.1200E+02  0.1200E+02
    -34.926  0.0000E+00  0.0000E+00  0.1200E+02  0.1200E+02
    -34.642  0.0000E+00  0.0000E+00  0.1200E+02  0.1200E+02
    -34.359  0.0000E+00  0.0000E+00  0.1200E+02  0.1200E+02
    -34.076  0.0000E+00  0.0000E+00  0.1200E+02  0.1200E+02
    -33.792  0.0000E+00  0.0000E+00  0.1200E+02  0.1200E+02
    -33.509  0.0000E+00  0.0000E+00  0.1200E+02  0.1200E+02
    -33.226  0.0000E+00  0.0000E+00  0.1200E+02  0.1200E+02
    -32.942  0.0000E+00  0.0000E+00  0.1200E+02  0.1200E+02
    -32.659  0.0000E+00  0.0000E+00  0.1200E+02  0.1200E+02
    -32.375  0.0000E+00  0.0000E+00  0.1200E+02  0.1200E+02
    -32.092  0.0000E+00  0.0000E+00  0.1200E+02  0.1200E+02
    -31.809  0.0000E+00  0.0000E+00  0.1200E+02  0.1200E+02
    -31.525  0.0000E+00  0.0000E+00  0.1200E+02  0.1200E+02
    -31.242  0.0000E+00  0.0000E+00  0.1200E+02  0.1200E+02
    -30.958  0.0000E+00  0.0000E+00  0.1200E+02  0.1200E+02
    -30.675  0.0000E+00  0.0000E+00  0.1200E+02  0.1200E+02
    -30.392  0.0000E+00  0.0000E+00  0.1200E+02  0.1200E+02
    -30.108  0.0000E+00  0.0000E+00  0.1200E+02  0.1200E+02
    -29.825  0.0000E+00  0.0000E+00  0.1200E+02  0.1200E+02
    -29.542  0.0000E+00  0.0000E+00  0.1200E+02  0.1200E+02
    -29.258  0.0000E+00  0.0000E+00  0.1200E+02  0.1200E+02
    -28.975  0.0000E+00  0.0000E+00  0.1200E+02  0.1200E+02
    -28.691  0.0000E+00  0.0000E+00  0.1200E+02  0.1200E+02
    -28.408  0.0000E+00  0.0000E+00  0.1200E+02  0.1200E+02
    -28.125  0.0000E+00  0.0000E+00  0.1200E+02  0.1200E+02
    -27.841  0.0000E+00  0.0000E+00  0.1200E+02  0.1200E+02
    -27.558  0.0000E+00  0.0000E+00  0.1200E+02  0.1200E+02
    -27.275  0.0000E+00  0.0000E+00  0.1200E+02  0.1200E+02
    -26.991  0.0000E+00  0.0000E+00  0.1200E+02  0.1200E+02
    -26.708  0.0000E+00  0.0000E+00  0.1200E+02  0.1200E+02
    -26.424  0.0000E+00  0.0000E+00  0.1200E+02  0.1200E+02
    -26.141  0.0000E+00  0.0000E+00  0.1200E+02  0.1200E+02
    -25.858  0.0000E+00  0.0000E+00  0.1200E+02  0.1200E+02
    -25.574  0.0000E+00  0.0000E+00  0.1200E+02  0.1200E+02
    -25.291  0.0000E+00  0.0000E+00  0.1200E+02  0.1200E+02
    -25.007  0.0000E+00  0.0000E+00  0.1200E+02  0.1200E+02
    -24.724  0.0000E+00  0.0000E+00  0.1200E+02  0.1200E+02
    -24.441  0.0000E+00  0.0000E+00  0.1200E+02  0.1200E+02
    -24.157  0.0000E+00  0.0000E+00  0.1200E+02  0.1200E+02
    -23.874  0.0000E+00  0.0000E+00  0.1200E+02  0.1200E+02
    -23.591  0.0000E+00  0.0000E+00  0.1200E+02  0.1200E+02
    -23.307  0.0000E+00  0.0000E+00  0.1200E+02  0.1200E+02
    -23.024  0.0000E+00  0.0000E+00  0.1200E+02  0.1200E+02
    -22.740  0.0000E+00  0.0000E+00  0.1200E+02  0.1200E+02
    -22.457  0.0000E+00  0.0000E+00  0.1200E+02  0.1200E+02
    -22.174  0.0000E+00  0.0000E+00  0.1200E+02  0.1200E+02
    -21.890  0.0000E+00  0.0000E+00  0.1200E+02  0.1200E+02
    -21.607  0.0000E+00  0.0000E+00  0.1200E+02  0.1200E+02
    -21.323  0.0000E+00  0.0000E+00  0.1200E+02  0.1200E+02
    -21.040  0.0000E+00  0.0000E+00  0.1200E+02  0.1200E+02
    -20.757  0.0000E+00  0.0000E+00  0.1200E+02  0.1200E+02
    -20.473  0.0000E+00  0.0000E+00  0.1200E+02  0.1200E+02
    -20.190  0.0000E+00  0.0000E+00  0.1200E+02  0.1200E+02
    -19.907  0.0000E+00  0.0000E+00  0.1200E+02  0.1200E+02
    -19.623  0.0000E+00  0.0000E+00  0.1200E+02  0.1200E+02
    -19.340  0.0000E+00  0.0000E+00  0.1200E+02  0.1200E+02
    -19.056  0.0000E+00  0.0000E+00  0.1200E+02  0.1200E+02
    -18.773  0.0000E+00  0.0000E+00  0.1200E+02  0.1200E+02
    -18.490  0.0000E+00  0.0000E+00  0.1200E+02  0.1200E+02
    -18.206  0.0000E+00  0.0000E+00  0.1200E+02  0.1200E+02
    -17.923  0.0000E+00  0.0000E+00  0.1200E+02  0.1200E+02
    -17.640  0.0000E+00  0.0000E+00  0.1200E+02  0.1200E+02
    -17.356  0.0000E+00  0.0000E+00  0.1200E+02  0.1200E+02
    -17.073  0.0000E+00  0.0000E+00  0.1200E+02  0.1200E+02
    -16.789  0.0000E+00  0.0000E+00  0.1200E+02  0.1200E+02
    -16.506  0.0000E+00  0.0000E+00  0.1200E+02  0.1200E+02
    -16.223  0.0000E+00  0.0000E+00  0.1200E+02  0.1200E+02
    -15.939  0.0000E+00  0.0000E+00  0.1200E+02  0.1200E+02
    -15.656  0.0000E+00  0.0000E+00  0.1200E+02  0.1200E+02
    -15.372  0.0000E+00  0.0000E+00  0.1200E+02  0.1200E+02
    -15.089  0.0000E+00  0.0000E+00  0.1200E+02  0.1200E+02
    -14.806  0.0000E+00  0.0000E+00  0.1200E+02  0.1200E+02
    -14.522  0.0000E+00  0.0000E+00  0.1200E+02  0.1200E+02
    -14.239  0.0000E+00  0.0000E+00  0.1200E+02  0.1200E+02
    -13.956  0.0000E+00  0.0000E+00  0.1200E+02  0.1200E+02
    -13.672  0.0000E+00  0.0000E+00  0.1200E+02  0.1200E+02
    -13.389  0.0000E+00  0.0000E+00  0.1200E+02  0.1200E+02
    -13.105  0.0000E+00  0.0000E+00  0.1200E+02  0.1200E+02
    -12.822  0.0000E+00  0.0000E+00  0.1200E+02  0.1200E+02
    -12.539  0.0000E+00  0.0000E+00  0.1200E+02  0.1200E+02
    -12.255  0.0000E+00  0.0000E+00  0.1200E+02  0.1200E+02
    -11.972  0.0000E+00  0.0000E+00  0.1200E+02  0.1200E+02
    -11.688  0.0000E+00  0.0000E+00  0.1200E+02  0.1200E+02
    -11.405  0.0000E+00  0.0000E+00  0.1200E+02  0.1200E+02
    -11.122  0.0000E+00  0.0000E+00  0.1200E+02  0.1200E+02
    -10.838  0.0000E+00  0.0000E+00  0.1200E+02  0.1200E+02
    -10.555  0.0000E+00  0.0000E+00  0.1200E+02  0.1200E+02
    -10.272  0.0000E+00  0.0000E+00  0.1200E+02  0.1200E+02
     -9.988  0.0000E+00  0.0000E+00  0.1200E+02  0.1200E+02
     -9.705  0.0000E+00  0.0000E+00  0.1200E+02  0.1200E+02
     -9.421  0.0000E+00  0.0000E+00  0.1200E+02  0.1200E+02
     -9.138  0.0000E+00  0.0000E+00  0.1200E+02  0.1200E+02
     -8.855  0.0000E+00  0.0000E+00  0.1200E+02  0.1200E+02
     -8.571  0.0000E+00  0.0000E+00  0.1200E+02  0.1200E+02
     -8.288  0.0000E+00  0.0000E+00  0.1200E+02  0.1200E+02
     -8.004  0.0000E+00  0.0000E+00  0.1200E+02  0.1200E+02
     -7.721  0.0000E+00  0.0000E+00  0.1200E+02  0.1200E+02
     -7.438  0.0000E+00  0.0000E+00  0.1200E+02  0.1200E+02
     -7.154  0.0000E+00  0.0000E+00  0.1200E+02  0.1200E+02
     -6.871  0.0000E+00  0.0000E+00  0.1200E+02  0.1200E+02
     -6.588  0.0000E+00  0.0000E+00  0.1200E+02  0.1200E+02
     -6.304  0.0000E+00  0.0000E+00  0.1200E+02  0.1200E+02
     -6.021  0.0000E+00  0.0000E+00  0.1200E+02  0.1200E+02
     -5.737  0.0000E+00  0.0000E+00  0.1200E+02  0.1200E+02
     -5.454  0.0000E+00  0.0000E+00  0.1200E+02  0.1200E+02
     -5.171  0.0000E+00  0.0000E+00  0.1200E+02  0.1200E+02
     -4.887  0.0000E+00  0.0000E+00  0.1200E+02  0.1200E+02
     -4.604  0.0000E+00  0.0000E+00  0.1200E+02  0.1200E+02
     -4.321  0.0000E+00  0.0000E+00  0.1200E+02  0.1200E+02
     -4.037  0.0000E+00  0.0000E+00  0.1200E+02  0.1200E+02
     -3.754  0.0000E+00  0.0000E+00  0.1200E+02  0.1200E+02
     -3.470  0.0000E+00  0.0000E+00  0.1200E+02  0.1200E+02
     -3.187  0.0000E+00  0.0000E+00  0.1200E+02  0.1200E+02
     -2.904  0.0000E+00  0.0000E+00  0.1200E+02  0.1200E+02
     -2.620  0.0000E+00  0.0000E+00  0.1200E+02  0.1200E+02
     -2.337  0.0000E+00  0.0000E+00  0.1200E+02  0.1200E+02
     -2.053  0.0000E+00  0.0000E+00  0.1200E+02  0.1200E+02
     -1.770  0.0000E+00  0.0000E+00  0.1200E+02  0.1200E+02
     -1.487  0.7896E-01  0.7896E-01  0.1201E+02  0.1201E+02
     -1.203  0.1671E+00  0.1671E+00  0.1204E+02  0.1204E+02
     -0.920  0.2309E+00  0.2309E+00  0.1210E+02  0.1210E+02
     -0.637  0.2737E+00  0.2737E+00  0.1217E+02  0.1217E+02
     -0.353  0.2735E+00  0.2735E+00  0.1225E+02  0.1225E+02
     -0.070  0.2848E+00  0.2848E+00  0.1233E+02  0.1233E+02
      0.214  0.3879E+00  0.3879E+00  0.1242E+02  0.1242E+02
      0.497  0.4983E+00  0.4983E+00  0.1255E+02  0.1255E+02
      0.780  0.5041E+00  0.5041E+00  0.1270E+02  0.1270E+02
      1.064  0.4775E+00  0.4775E+00  0.1284E+02  0.1284E+02
      1.347  0.4416E+00  0.4416E+00  0.1297E+02  0.1297E+02
      1.631  0.4321E+00  0.4321E+00  0.1309E+02  0.1309E+02
      1.914  0.4816E+00  0.4816E+00  0.1322E+02  0.1322E+02
      2.197  0.6431E+00  0.6431E+00  0.1338E+02  0.1338E+02
      2.481  0.7738E+00  0.7738E+00  0.1356E+02  0.1356E+02
      2.764  0.7158E+00  0.7158E+00  0.1378E+02  0.1378E+02
      3.047  0.9952E+00  0.9952E+00  0.1402E+02  0.1402E+02
      3.331  0.5059E+00  0.5059E+00  0.1421E+02  0.1421E+02
      3.614  0.9434E+00  0.9434E+00  0.1440E+02  0.1440E+02
      3.898  0.9330E+00  0.9330E+00  0.1471E+02  0.1471E+02
      4.181  0.1416E+01  0.1416E+01  0.1500E+02  0.1500E+02
      4.464  0.2234E+01  0.2234E+01  0.1558E+02  0.1558E+02
      4.748  0.1853E+01  0.1853E+01  0.1595E+02  0.1595E+02
      5.031  0.1974E+01  0.1974E+01  0.1657E+02  0.1657E+02
      5.315  0.5145E+01  0.5145E+01  0.1722E+02  0.1722E+02
      5.598  0.5394E+01  0.5394E+01  0.1854E+02  0.1854E+02
      5.881  0.6877E+01  0.6877E+01  0.2026E+02  0.2026E+02
      6.165  0.5543E+01  0.5543E+01  0.2178E+02  0.2178E+02
      6.448  0.4401E+01  0.4401E+01  0.2366E+02  0.2366E+02
      6.731  0.2928E+01  0.2928E+01  0.2468E+02  0.2468E+02
      7.015  0.6515E+01  0.6515E+01  0.2603E+02  0.2603E+02
      7.298  0.8099E+01  0.8099E+01  0.2801E+02  0.2801E+02
      7.582  0.6802E+01  0.6802E+01  0.2990E+02  0.2990E+02
      7.865  0.8083E+01  0.8083E+01  0.3210E+02  0.3210E+02
      8.148  0.4143E+01  0.4143E+01  0.3382E+02  0.3382E+02
      8.432  0.1649E+01  0.1649E+01  0.3467E+02  0.3467E+02
      8.715  0.1279E+01  0.1279E+01  0.3513E+02  0.3513E+02
      8.998  0.7146E+00  0.7146E+00  0.3543E+02  0.3543E+02
      9.282  0.1598E+01  0.1598E+01  0.3582E+02  0.3582E+02
      9.565  0.1112E+01  0.1112E+01  0.3623E+02  0.3623E+02
      9.849  0.8911E+00  0.8911E+00  0.3651E+02  0.3651E+02
     10.132  0.1053E+01  0.1053E+01  0.3678E+02  0.3678E+02
     10.415  0.8519E+00  0.8519E+00  0.3707E+02  0.3707E+02
     10.699  0.6910E+00  0.6910E+00  0.3729E+02  0.3729E+02
     10.982  0.6731E+00  0.6731E+00  0.3748E+02  0.3748E+02
     11.266  0.8039E+00  0.8039E+00  0.3767E+02  0.3767E+02
     11.549  0.4427E+00  0.4427E+00  0.3783E+02  0.3783E+02
     11.832  0.7080E+00  0.7080E+00  0.3799E+02  0.3799E+02
     12.116  0.8190E+00  0.8190E+00  0.3821E+02  0.3821E+02
     12.399  0.1047E+01  0.1047E+01  0.3848E+02  0.3848E+02
     12.682  0.1099E+01  0.1099E+01  0.3880E+02  0.3880E+02
     12.966  0.1152E+01  0.1152E+01  0.3911E+02  0.3911E+02
     13.249  0.1117E+01  0.1117E+01  0.3944E+02  0.3944E+02
     13.533  0.1135E+01  0.1135E+01  0.3976E+02  0.3976E+02
     13.816  0.1075E+01  0.1075E+01  0.4006E+02  0.4006E+02
     14.099  0.1074E+01  0.1074E+01  0.4039E+02  0.4039E+02
     14.383  0.8283E+00  0.8283E+00  0.4066E+02  0.4066E+02
     14.666  0.7059E+00  0.7059E+00  0.4087E+02  0.4087E+02
     14.950  0.1020E+01  0.1020E+01  0.4112E+02  0.4112E+02
     15.233  0.8226E+00  0.8226E+00  0.4137E+02  0.4137E+02
     15.516  0.9235E+00  0.9235E+00  0.4162E+02  0.4162E+02
     15.800  0.9933E+00  0.9933E+00  0.4188E+02  0.4188E+02
     16.083  0.1237E+01  0.1237E+01  0.4222E+02  0.4222E+02
     16.366  0.1106E+01  0.1106E+01  0.4256E+02  0.4256E+02
     16.650  0.1172E+01  0.1172E+01  0.4287E+02  0.4287E+02
     16.933  0.1251E+01  0.1251E+01  0.4323E+02  0.4323E+02
     17.217  0.1294E+01  0.1294E+01  0.4358E+02  0.4358E+02
     17.500  0.1236E+01  0.1236E+01  0.4395E+02  0.4395E+02
     17.783  0.1053E+01  0.1053E+01  0.4424E+02  0.4424E+02
     18.067  0.1066E+01  0.1066E+01  0.4455E+02  0.4455E+02
     18.350  0.1032E+01  0.1032E+01  0.4484E+02  0.4484E+02
     18.633  0.1222E+01  0.1222E+01  0.4516E+02  0.4516E+02
     18.917  0.1343E+01  0.1343E+01  0.4554E+02  0.4554E+02
     19.200  0.1271E+01  0.1271E+01  0.4590E+02  0.4590E+02
     19.484  0.1276E+01  0.1276E+01  0.4628E+02  0.4628E+02
     19.767  0.1124E+01  0.1124E+01  0.4664E+02  0.4664E+02
     20.050  0.9065E+00  0.9065E+00  0.4693E+02  0.4693E+02
     20.334  0.6590E+00  0.6590E+00  0.4715E+02  0.4715E+02
     20.617  0.7702E+00  0.7702E+00  0.4734E+02  0.4734E+02
     20.901  0.6124E+00  0.6124E+00  0.4754E+02  0.4754E+02
     21.184  0.5494E+00  0.5494E+00  0.4769E+02  0.4769E+02
     21.467  0.3620E+00  0.3620E+00  0.4782E+02  0.4782E+02
     21.751  0.1731E+00  0.1731E+00  0.4790E+02  0.4790E+02
     22.034  0.1374E+00  0.1374E+00  0.4794E+02  0.4794E+02
     22.317  0.1496E+00  0.1496E+00  0.4799E+02  0.4799E+02
     22.601  0.0000E+00  0.0000E+00  0.4800E+02  0.4800E+02
     22.884  0.0000E+00  0.0000E+00  0.4800E+02  0.4800E+02
     23.168  0.0000E+00  0.0000E+00  0.4800E+02  0.4800E+02
     23.451  0.0000E+00  0.0000E+00  0.4800E+02  0.4800E+02
     23.734  0.0000E+00  0.0000E+00  0.4800E+02  0.4800E+02
     24.018  0.0000E+00  0.0000E+00  0.4800E+02  0.4800E+02
     24.301  0.0000E+00  0.0000E+00  0.4800E+02  0.4800E+02
     24.585  0.0000E+00  0.0000E+00  0.4800E+02  0.4800E+02
     24.868  0.0000E+00  0.0000E+00  0.4800E+02  0.4800E+02
     25.151  0.0000E+00  0.0000E+00  0.4800E+02  0.4800E+02
     25.435  0.0000E+00  0.0000E+00  0.4800E+02  0.4800E+02
     25.718  0.0000E+00  0.0000E+00  0.4800E+02  0.4800E+02
     26.001  0.0000E+00  0.0000E+00  0.4800E+02  0.4800E+02
     26.285  0.0000E+00  0.0000E+00  0.4800E+02  0.4800E+02
