 running on   24 total cores
 distrk:  each k-point on   24 cores,    1 groups
 distr:  one band on    6 cores,    4 groups
 using from now: INCAR     
 vasp.5.4.4.18Apr17-6-g9f103f2a35 (build Jan 03 2018 06:08:52) complex          
  
 POSCAR found :  2 types and       6 ions
 scaLAPACK will be used
 WARNING: for PREC=h ENMAX is automatically increase by 25 %
        this was not the case for versions prior to vasp.4.4
 WARNING: for PREC=h ENMAX is automatically increase by 25 %
        this was not the case for versions prior to vasp.4.4
 LDA part: xc-table for Pade appr. of Perdew
 POSCAR, INCAR and KPOINTS ok, starting setup
 FFT: planning ...
 WAVECAR not read
 entering main loop
       N       E                     dE             d eps       ncg     rms          rms(c)
DAV:   1     0.859241462236E+03    0.85924E+03   -0.41470E+04  8040   0.178E+03
DAV:   2     0.159765193886E+02   -0.84326E+03   -0.80781E+03  6992   0.565E+02
DAV:   3    -0.368860485811E+02   -0.52863E+02   -0.50022E+02  8040   0.163E+02
DAV:   4    -0.382324902119E+02   -0.13464E+01   -0.13427E+01  7664   0.250E+01
DAV:   5    -0.382674951095E+02   -0.35005E-01   -0.35002E-01  8176   0.397E+00    0.250E+01
DAV:   6    -0.443034433559E+02   -0.60359E+01   -0.81947E+01  7904   0.108E+02    0.294E+01
DAV:   7    -0.332564365480E+02    0.11047E+02   -0.30585E+01  8080   0.740E+01    0.508E+00
DAV:   8    -0.335574025906E+02   -0.30097E+00   -0.34829E+00  8328   0.300E+01    0.661E+00
DAV:   9    -0.332779523859E+02    0.27945E+00   -0.10002E+00  8456   0.161E+01    0.162E+00
DAV:  10    -0.332812448283E+02   -0.32924E-02   -0.18370E-01  8984   0.619E+00    0.206E+00
DAV:  11    -0.332555153951E+02    0.25729E-01   -0.84824E-02  7752   0.607E+00    0.463E-01
DAV:  12    -0.332538146905E+02    0.17007E-02   -0.98574E-03  8144   0.115E+00    0.133E-01
DAV:  13    -0.332538219621E+02   -0.72716E-05   -0.11783E-03  8496   0.349E-01    0.614E-02
DAV:  14    -0.332538011090E+02    0.20853E-04   -0.14307E-04  8272   0.145E-01    0.232E-02
DAV:  15    -0.332538032762E+02   -0.21672E-05   -0.14457E-05  7960   0.316E-02    0.113E-02
DAV:  16    -0.332538038859E+02   -0.60966E-06   -0.29277E-06  9192   0.159E-02    0.642E-03
DAV:  17    -0.332538045154E+02   -0.62947E-06   -0.97601E-07  8904   0.864E-03    0.587E-03
DAV:  18    -0.332538049055E+02   -0.39011E-06   -0.47760E-07  9184   0.578E-03    0.546E-03
DAV:  19    -0.332538054453E+02   -0.53978E-06   -0.22000E-06  8696   0.135E-02    0.347E-03
DAV:  20    -0.332538062874E+02   -0.84216E-06   -0.13707E-06  9104   0.978E-03    0.261E-03
DAV:  21    -0.332538067832E+02   -0.49582E-06   -0.94037E-07  9080   0.804E-03    0.211E-03
DAV:  22    -0.332538071181E+02   -0.33483E-06   -0.10573E-06  8952   0.869E-03    0.153E-03
DAV:  23    -0.332538074353E+02   -0.31721E-06   -0.60761E-07  9272   0.628E-03    0.132E-03
DAV:  24    -0.332538074415E+02   -0.62719E-08   -0.14719E-06  8624   0.108E-02    0.155E-03
DAV:  25    -0.332538077605E+02   -0.31898E-06   -0.30676E-07  7768   0.645E-03    0.196E-03
DAV:  26    -0.332538078292E+02   -0.68711E-07   -0.19398E-07  7216   0.464E-03    0.704E-04
DAV:  27    -0.332538078667E+02   -0.37466E-07   -0.22831E-08  4784   0.131E-03    0.103E-03
DAV:  28    -0.332538078950E+02   -0.28267E-07   -0.10088E-07  6776   0.288E-03    0.593E-04
DAV:  29    -0.332538079252E+02   -0.30201E-07   -0.32548E-08  5288   0.146E-03    0.667E-04
DAV:  30    -0.332538079385E+02   -0.13375E-07   -0.91037E-09  3696   0.745E-04    0.727E-04
DAV:  31    -0.332538079368E+02    0.17644E-08   -0.20417E-09  3640   0.459E-04
   1 F= -.33253808E+02 E0= -.33252844E+02  d E =-.332538E+02  mag=    -0.0036
 curvature:   0.00 expect dE= 0.000E+00 dE for cont linesearch  0.000E+00
 trial: gam= 0.00000 g(F)=  0.281E+00 g(S)=  0.712E+00 ort = 0.000E+00 (trialstep = 0.100E+01)
 search vector abs. value=  0.993E+00
 bond charge predicted
       N       E                     dE             d eps       ncg     rms          rms(c)
DAV:   1    -0.802828784068E+02   -0.47029E+02   -0.45473E+02  7376   0.261E+02    0.594E+01
DAV:   2    -0.728209533414E+02    0.74619E+01   -0.46627E+02  7776   0.213E+02    0.526E+01
DAV:   3    -0.363540367493E+02    0.36467E+02   -0.13775E+02  7936   0.129E+02    0.185E+01
DAV:   4    -0.354505773558E+02    0.90346E+00   -0.16144E+01  8416   0.568E+01    0.138E+01
DAV:   5    -0.336336851043E+02    0.18169E+01   -0.36487E+00  8320   0.279E+01    0.209E+00
DAV:   6    -0.335180579447E+02    0.11563E+00   -0.44449E-01  7552   0.541E+00    0.978E-01
DAV:   7    -0.335196926235E+02   -0.16347E-02   -0.52516E-02  8152   0.472E+00    0.115E+00
DAV:   8    -0.335100594867E+02    0.96331E-02   -0.17885E-02  8104   0.258E+00    0.232E-01
DAV:   9    -0.335096900164E+02    0.36947E-03   -0.36967E-03  8464   0.713E-01    0.520E-02
DAV:  10    -0.335096886199E+02    0.13965E-05   -0.45706E-04  7736   0.295E-01    0.283E-02
DAV:  11    -0.335096886318E+02   -0.11883E-07   -0.81102E-05  8136   0.126E-01    0.207E-02
DAV:  12    -0.335096874159E+02    0.12159E-05   -0.20453E-05  8144   0.809E-02    0.123E-02
DAV:  13    -0.335096870333E+02    0.38258E-06   -0.33054E-06  9656   0.316E-02    0.182E-03
DAV:  14    -0.335096871875E+02   -0.15423E-06   -0.39502E-07  8824   0.622E-03    0.102E-03
DAV:  15    -0.335096871766E+02    0.10967E-07   -0.37130E-08  6744   0.316E-03    0.280E-04
DAV:  16    -0.335096871475E+02    0.29033E-07   -0.96639E-09  3848   0.108E-03    0.174E-04
DAV:  17    -0.335096871404E+02    0.71122E-08   -0.23646E-09  3824   0.552E-04
   2 F= -.33509687E+02 E0= -.33509744E+02  d E =-.255879E+00  mag=     0.0000
 trial-energy change:   -0.255879  1 .order   -0.295850   -0.992827    0.401126
 step:   0.6745(harm=  0.7122)  dis= 0.05507  next Energy=   -33.576357 (dE=-0.323E+00)
 bond charge predicted
       N       E                     dE             d eps       ncg     rms          rms(c)
DAV:   1    -0.393338544574E+02   -0.58242E+01   -0.51288E+01  7712   0.772E+01    0.244E+01
DAV:   2    -0.451673578543E+02   -0.58335E+01   -0.81675E+01  7648   0.105E+02    0.284E+01
DAV:   3    -0.336411643270E+02    0.11526E+02   -0.31807E+01  7840   0.660E+01    0.380E+00
DAV:   4    -0.336949117683E+02   -0.53747E-01   -0.15658E+00  8224   0.161E+01    0.345E+00
DAV:   5    -0.336230889308E+02    0.71823E-01   -0.44878E-01  9168   0.910E+00    0.231E+00
DAV:   6    -0.336035277487E+02    0.19561E-01   -0.15257E-01  8368   0.666E+00    0.210E+00
DAV:   7    -0.335747235797E+02    0.28804E-01   -0.71132E-02  7760   0.444E+00    0.332E-01
DAV:   8    -0.335740952942E+02    0.62829E-03   -0.10011E-02  8160   0.782E-01    0.118E-01
DAV:   9    -0.335740639734E+02    0.31321E-04   -0.14071E-03  7632   0.389E-01    0.521E-02
DAV:  10    -0.335740431558E+02    0.20818E-04   -0.18806E-04  8064   0.162E-01    0.178E-02
DAV:  11    -0.335740397882E+02    0.33676E-05   -0.13241E-05  7888   0.403E-02    0.678E-03
DAV:  12    -0.335740388936E+02    0.89462E-06   -0.27203E-06  9040   0.166E-02    0.295E-03
DAV:  13    -0.335740388668E+02    0.26779E-07   -0.51200E-07  7856   0.801E-03    0.494E-04
DAV:  14    -0.335740388603E+02    0.65611E-08   -0.15428E-08  4784   0.163E-03
   3 F= -.33574039E+02 E0= -.33573720E+02  d E =-.320231E+00  mag=     0.0000
 curvature:  -0.35 expect dE=-0.408E-01 dE for cont linesearch -0.998E-05
 trial: gam= 0.12285 g(F)=  0.434E-01 g(S)=  0.732E-01 ort =-0.532E-02 (trialstep = 0.935E+00)
 search vector abs. value=  0.130E+00
 bond charge predicted
       N       E                     dE             d eps       ncg     rms          rms(c)
DAV:   1    -0.349641352404E+02   -0.13901E+01   -0.17248E+01  7824   0.376E+01    0.116E+01
DAV:   2    -0.360066125509E+02   -0.10425E+01   -0.17509E+01  7696   0.468E+01    0.136E+01
DAV:   3    -0.337122739299E+02    0.22943E+01   -0.66934E+00  7776   0.326E+01    0.337E+00
DAV:   4    -0.337916447863E+02   -0.79371E-01   -0.10357E+00  8224   0.182E+01    0.469E+00
DAV:   5    -0.336463397045E+02    0.14531E+00   -0.42913E-01  8272   0.860E+00    0.778E-01
DAV:   6    -0.336428132500E+02    0.35265E-02   -0.33635E-02  7760   0.149E+00    0.243E-01
DAV:   7    -0.336425433003E+02    0.26995E-03   -0.24334E-03  9416   0.589E-01    0.125E-01
DAV:   8    -0.336425747765E+02   -0.31476E-04   -0.78708E-04  8168   0.599E-01    0.133E-01
DAV:   9    -0.336424554879E+02    0.11929E-03   -0.37871E-04  7856   0.361E-01    0.166E-02
DAV:  10    -0.336424523669E+02    0.31210E-05   -0.40663E-05  7552   0.551E-02    0.104E-02
DAV:  11    -0.336424513972E+02    0.96972E-06   -0.40222E-06  8384   0.218E-02    0.265E-03
DAV:  12    -0.336424511778E+02    0.21938E-06   -0.40817E-07  7616   0.730E-03    0.913E-04
DAV:  13    -0.336424511100E+02    0.67861E-07   -0.28435E-08  6184   0.185E-03    0.481E-04
DAV:  14    -0.336424511025E+02    0.74306E-08   -0.12600E-08  3824   0.128E-03
   4 F= -.33642451E+02 E0= -.33642491E+02  d E =-.684122E-01  mag=    -0.0000
 trial-energy change:   -0.068412  1 .order   -0.067672   -0.108445   -0.026899
 step:   1.2228(harm=  1.2433)  dis= 0.05171  next Energy=   -33.646614 (dE=-0.726E-01)
 bond charge predicted
       N       E                     dE             d eps       ncg     rms          rms(c)
DAV:   1    -0.337719740427E+02   -0.12952E+00   -0.16552E+00  7808   0.119E+01    0.356E+00
DAV:   2    -0.338721694205E+02   -0.10020E+00   -0.16615E+00  7808   0.144E+01    0.429E+00
DAV:   3    -0.336530289529E+02    0.21914E+00   -0.68093E-01  7728   0.949E+00    0.787E-01
DAV:   4    -0.336642020822E+02   -0.11173E-01   -0.90451E-02  8256   0.587E+00    0.155E+00
DAV:   5    -0.336472453704E+02    0.16957E-01   -0.46639E-02  7760   0.335E+00    0.217E-01
DAV:   6    -0.336473790365E+02   -0.13367E-03   -0.40906E-03  8688   0.785E-01    0.219E-01
DAV:   7    -0.336470892623E+02    0.28977E-03   -0.10026E-03  7776   0.646E-01    0.501E-02
DAV:   8    -0.336470801353E+02    0.91270E-05   -0.12627E-04  8784   0.141E-01    0.214E-02
DAV:   9    -0.336470778237E+02    0.23117E-05   -0.24745E-05  7600   0.699E-02    0.418E-03
DAV:  10    -0.336470775023E+02    0.32138E-06   -0.17924E-06  8176   0.167E-02    0.211E-03
DAV:  11    -0.336470772932E+02    0.20913E-06   -0.17582E-07  7888   0.579E-03    0.519E-04
DAV:  12    -0.336470772702E+02    0.22985E-07   -0.15954E-08  4240   0.179E-03    0.148E-04
DAV:  13    -0.336470772592E+02    0.10959E-07   -0.38361E-09  3728   0.673E-04    0.873E-05
DAV:  14    -0.336470772581E+02    0.11369E-08   -0.10376E-09  3584   0.306E-04
   5 F= -.33647077E+02 E0= -.33647072E+02  d E =-.730384E-01  mag=     0.0000
 curvature:  -0.70 expect dE=-0.643E-02 dE for cont linesearch -0.592E-04
 ZBRENT: extrapolating
 opt :   1.2605  next Energy=   -33.647140 (dE=-0.731E-01)
 bond charge predicted
       N       E                     dE             d eps       ncg     rms          rms(c)
DAV:   1    -0.336492926679E+02   -0.22154E-02   -0.28391E-02  7808   0.158E+00    0.461E-01
DAV:   2    -0.336510288524E+02   -0.17362E-02   -0.28646E-02  7808   0.185E+00    0.563E-01
DAV:   3    -0.336472570113E+02    0.37718E-02   -0.11358E-02  7696   0.118E+00    0.958E-02
DAV:   4    -0.336473533492E+02   -0.96338E-04   -0.92282E-04  9040   0.585E-01    0.168E-01
DAV:   5    -0.336471492043E+02    0.20414E-03   -0.52337E-04  8272   0.468E-01    0.198E-02
DAV:   6    -0.336471504763E+02   -0.12720E-05   -0.48956E-05  8576   0.668E-02    0.172E-02
DAV:   7    -0.336471488915E+02    0.15848E-05   -0.72954E-06  7728   0.513E-02    0.585E-03
DAV:   8    -0.336471483787E+02    0.51282E-06   -0.15460E-06  9232   0.179E-02    0.316E-03
DAV:   9    -0.336471481997E+02    0.17900E-06   -0.32631E-07  8752   0.904E-03    0.536E-04
DAV:  10    -0.336471481501E+02    0.49555E-07   -0.21472E-08  5248   0.149E-03    0.198E-04
DAV:  11    -0.336471481261E+02    0.23974E-07   -0.23721E-09  3696   0.470E-04    0.923E-05
DAV:  12    -0.336471481214E+02    0.47821E-08   -0.70315E-10  3632   0.321E-04
   6 F= -.33647148E+02 E0= -.33647150E+02  d E =-.731093E-01  mag=     0.0000
 curvature:  -0.74 expect dE=-0.765E-02 dE for cont linesearch -0.187E-06
 trial: gam= 0.12968 g(F)=  0.360E-02 g(S)=  0.678E-02 ort = 0.182E-03 (trialstep = 0.100E+01)
 search vector abs. value=  0.126E-01
 bond charge predicted
       N       E                     dE             d eps       ncg     rms          rms(c)
DAV:   1    -0.337155495782E+02   -0.68401E-01   -0.36261E+00  8696   0.428E+01    0.392E+00
DAV:   2    -0.339462620099E+02   -0.23071E+00   -0.31844E+00  7904   0.191E+01    0.543E+00
DAV:   3    -0.337486537528E+02    0.19761E+00   -0.13519E+00  7984   0.170E+01    0.369E+00
DAV:   4    -0.336660568383E+02    0.82597E-01   -0.35038E-01  7816   0.952E+00    0.103E+00
DAV:   5    -0.336569147135E+02    0.91421E-02   -0.41771E-02  8840   0.286E+00    0.599E-01
DAV:   6    -0.336556977539E+02    0.12170E-02   -0.16015E-02  7640   0.244E+00    0.392E-01
DAV:   7    -0.336546645163E+02    0.10332E-02   -0.30905E-03  7624   0.107E+00    0.543E-02
DAV:   8    -0.336546763107E+02   -0.11794E-04   -0.37898E-04  8040   0.180E-01    0.214E-02
DAV:   9    -0.336546776185E+02   -0.13078E-05   -0.31175E-05  8200   0.736E-02    0.621E-03
DAV:  10    -0.336546780076E+02   -0.38911E-06   -0.26281E-06  8048   0.199E-02    0.225E-03
DAV:  11    -0.336546779571E+02    0.50464E-07   -0.29060E-07  8376   0.719E-03    0.641E-04
DAV:  12    -0.336546779674E+02   -0.10325E-07   -0.22917E-08  5464   0.123E-03    0.242E-04
DAV:  13    -0.336546779708E+02   -0.33688E-08   -0.26458E-09  3824   0.420E-04
   7 F= -.33654678E+02 E0= -.33654911E+02  d E =-.752985E-02  mag=     0.0000
 trial-energy change:   -0.007530  1 .order   -0.007317   -0.010400   -0.004234
 step:   1.5220(harm=  1.6866)  dis= 0.01311  next Energy=   -33.655813 (dE=-0.867E-02)
 bond charge predicted
       N       E                     dE             d eps       ncg     rms          rms(c)
DAV:   1    -0.336694626308E+02   -0.14785E-01   -0.96799E-01  8368   0.223E+01    0.198E+00
DAV:   2    -0.337198159178E+02   -0.50353E-01   -0.78167E-01  7792   0.929E+00    0.241E+00
DAV:   3    -0.336710092107E+02    0.48807E-01   -0.28506E-01  8048   0.777E+00    0.149E+00
DAV:   4    -0.336594414232E+02    0.11568E-01   -0.75989E-02  7792   0.503E+00    0.576E-01
DAV:   5    -0.336563928331E+02    0.30486E-02   -0.99551E-03  9352   0.151E+00    0.287E-01
DAV:   6    -0.336562064945E+02    0.18634E-03   -0.41163E-03  7800   0.128E+00    0.220E-01
DAV:   7    -0.336558864572E+02    0.32004E-03   -0.89027E-04  7648   0.596E-01    0.288E-02
DAV:   8    -0.336558906850E+02   -0.42278E-05   -0.91922E-05  7912   0.861E-02    0.995E-03
DAV:   9    -0.336558914147E+02   -0.72971E-06   -0.70566E-06  8112   0.330E-02    0.353E-03
DAV:  10    -0.336558915417E+02   -0.12701E-06   -0.63534E-07  8128   0.110E-02    0.104E-03
DAV:  11    -0.336558915304E+02    0.11321E-07   -0.65618E-08  7392   0.362E-03    0.248E-04
DAV:  12    -0.336558915405E+02   -0.10068E-07   -0.58530E-09  3904   0.838E-04    0.982E-05
DAV:  13    -0.336558915399E+02    0.56389E-09   -0.14433E-09  3704   0.383E-04
   8 F= -.33655892E+02 E0= -.33656114E+02  d E =-.874342E-02  mag=     0.0000
 curvature:  -0.96 expect dE=-0.421E-02 dE for cont linesearch -0.112E-04
 trial: gam= 0.43658 g(F)=  0.782E-03 g(S)=  0.359E-02 ort = 0.383E-03 (trialstep = 0.110E+01)
 search vector abs. value=  0.711E-02
 bond charge predicted
       N       E                     dE             d eps       ncg     rms          rms(c)
DAV:   1    -0.337907435485E+02   -0.13485E+00   -0.27062E+00  8016   0.333E+01    0.437E+00
DAV:   2    -0.339845165724E+02   -0.19377E+00   -0.29629E+00  7728   0.186E+01    0.514E+00
DAV:   3    -0.336775850099E+02    0.30693E+00   -0.11652E+00  7808   0.126E+01    0.166E+00
DAV:   4    -0.336693000762E+02    0.82849E-02   -0.14876E-01  8064   0.659E+00    0.109E+00
DAV:   5    -0.336581908286E+02    0.11109E-01   -0.22639E-02  9312   0.260E+00    0.192E-01
DAV:   6    -0.336586401973E+02   -0.44937E-03   -0.43432E-03  9280   0.990E-01    0.303E-01
DAV:   7    -0.336580569946E+02    0.58320E-03   -0.18247E-03  7680   0.848E-01    0.489E-02
DAV:   8    -0.336580568972E+02    0.97336E-07   -0.16317E-04  7936   0.136E-01    0.183E-02
DAV:   9    -0.336580565390E+02    0.35826E-06   -0.19171E-05  7808   0.591E-02    0.598E-03
DAV:  10    -0.336580560305E+02    0.50848E-06   -0.16727E-06  7944   0.168E-02    0.144E-03
DAV:  11    -0.336580558870E+02    0.14352E-06   -0.13479E-07  7584   0.345E-03    0.336E-04
DAV:  12    -0.336580558424E+02    0.44532E-07   -0.13170E-08  4256   0.133E-03    0.185E-04
DAV:  13    -0.336580558351E+02    0.73760E-08   -0.26664E-09  3728   0.542E-04
   9 F= -.33658056E+02 E0= -.33658298E+02  d E =-.216430E-02  mag=    -0.0000
 trial-energy change:   -0.002164  1 .order   -0.002132   -0.005008    0.000744
 step:   0.9656(harm=  0.9615)  dis= 0.00538  next Energy=   -33.658103 (dE=-0.221E-02)
 bond charge predicted
       N       E                     dE             d eps       ncg     rms          rms(c)
DAV:   1    -0.336601958879E+02   -0.21400E-02   -0.43386E-02  8032   0.420E+00    0.537E-01
DAV:   2    -0.336627621174E+02   -0.25662E-02   -0.46068E-02  7696   0.229E+00    0.608E-01
DAV:   3    -0.336582978725E+02    0.44642E-02   -0.15576E-02  7744   0.140E+00    0.146E-01
DAV:   4    -0.336583377397E+02   -0.39867E-04   -0.14954E-03  8448   0.706E-01    0.167E-01
DAV:   5    -0.336581008574E+02    0.23688E-03   -0.53445E-04  8544   0.455E-01    0.181E-02
DAV:   6    -0.336581109160E+02   -0.10059E-04   -0.76279E-05  9200   0.121E-01    0.353E-02
DAV:   7    -0.336581030819E+02    0.78341E-05   -0.26138E-05  7648   0.987E-02    0.646E-03
DAV:   8    -0.336581035060E+02   -0.42406E-06   -0.24001E-06  8488   0.180E-02    0.346E-03
DAV:   9    -0.336581036589E+02   -0.15292E-06   -0.44004E-07  7728   0.947E-03    0.800E-04
DAV:  10    -0.336581037117E+02   -0.52767E-07   -0.31385E-08  6008   0.226E-03    0.353E-04
DAV:  11    -0.336581037477E+02   -0.36054E-07   -0.51566E-09  3680   0.725E-04    0.501E-05
DAV:  12    -0.336581037529E+02   -0.51896E-08   -0.94648E-10  3568   0.305E-04
  10 F= -.33658104E+02 E0= -.33658342E+02  d E =-.221221E-02  mag=     0.0000
 curvature:  -0.75 expect dE=-0.405E-03 dE for cont linesearch -0.353E-09
 trial: gam= 0.11870 g(F)=  0.335E-03 g(S)=  0.203E-03 ort =-0.183E-05 (trialstep = 0.108E+01)
 search vector abs. value=  0.638E-03
 bond charge predicted
       N       E                     dE             d eps       ncg     rms          rms(c)
DAV:   1    -0.336611197531E+02   -0.30160E-02   -0.72716E-02  8192   0.310E+00    0.491E-01
DAV:   2    -0.336610428473E+02    0.76906E-04   -0.23125E-02  7888   0.172E+00    0.440E-01
DAV:   3    -0.336590103799E+02    0.20325E-02   -0.82921E-03  7776   0.112E+00    0.216E-01
DAV:   4    -0.336594837663E+02   -0.47339E-03   -0.42227E-03  7792   0.128E+00    0.361E-01
DAV:   5    -0.336585114179E+02    0.97235E-03   -0.17718E-03  7936   0.862E-01    0.270E-02
DAV:   6    -0.336585253551E+02   -0.13937E-04   -0.21631E-04  8336   0.132E-01    0.262E-02
DAV:   7    -0.336585219387E+02    0.34164E-05   -0.21130E-05  8032   0.800E-02    0.991E-03
DAV:   8    -0.336585214461E+02    0.49259E-06   -0.37854E-06  8816   0.263E-02    0.494E-03
DAV:   9    -0.336585215762E+02   -0.13006E-06   -0.68635E-07  8304   0.101E-02    0.132E-03
DAV:  10    -0.336585216146E+02   -0.38464E-07   -0.74538E-08  7000   0.404E-03    0.404E-04
DAV:  11    -0.336585216474E+02   -0.32735E-07   -0.72798E-09  3696   0.837E-04    0.909E-05
DAV:  12    -0.336585216462E+02    0.11860E-08   -0.13804E-09  3648   0.375E-04
  11 F= -.33658522E+02 E0= -.33658753E+02  d E =-.417893E-03  mag=    -0.0000
 trial-energy change:   -0.000418  1 .order   -0.000419   -0.000579   -0.000260
 step:   1.9998(harm=  1.9515)  dis= 0.00602  next Energy=   -33.658632 (dE=-0.528E-03)
 bond charge predicted
       N       E                     dE             d eps       ncg     rms          rms(c)
DAV:   1    -0.336605307019E+02   -0.20091E-02   -0.53374E-02  8192   0.265E+00    0.420E-01
DAV:   2    -0.336604675406E+02    0.63161E-04   -0.16872E-02  7888   0.147E+00    0.376E-01
DAV:   3    -0.336589881893E+02    0.14794E-02   -0.60524E-03  7792   0.961E-01    0.187E-01
DAV:   4    -0.336593286301E+02   -0.34044E-03   -0.31205E-03  7744   0.110E+00    0.308E-01
DAV:   5    -0.336586183229E+02    0.71031E-03   -0.12825E-03  7936   0.733E-01    0.236E-02
DAV:   6    -0.336586283366E+02   -0.10014E-04   -0.15805E-04  8432   0.113E-01    0.228E-02
DAV:   7    -0.336586257441E+02    0.25925E-05   -0.15877E-05  7952   0.694E-02    0.842E-03
DAV:   8    -0.336586254266E+02    0.31750E-06   -0.27821E-06  8800   0.224E-02    0.424E-03
DAV:   9    -0.336586255346E+02   -0.10798E-06   -0.50552E-07  8304   0.863E-03    0.114E-03
DAV:  10    -0.336586255673E+02   -0.32749E-07   -0.55035E-08  6704   0.346E-03    0.344E-04
DAV:  11    -0.336586255956E+02   -0.28263E-07   -0.54368E-09  3680   0.727E-04    0.787E-05
DAV:  12    -0.336586255952E+02    0.38744E-09   -0.10535E-09  3648   0.328E-04
  12 F= -.33658626E+02 E0= -.33658851E+02  d E =-.521842E-03  mag=     0.0000
 curvature:  -1.15 expect dE=-0.175E-03 dE for cont linesearch -0.275E-06
 trial: gam= 0.29534 g(F)=  0.423E-04 g(S)=  0.109E-03 ort =-0.123E-04 (trialstep = 0.126E+01)
 search vector abs. value=  0.200E-03
 bond charge predicted
       N       E                     dE             d eps       ncg     rms          rms(c)
DAV:   1    -0.336644832543E+02   -0.58577E-02   -0.11488E-01  8128   0.716E+00    0.903E-01
DAV:   2    -0.336727333695E+02   -0.82501E-02   -0.13472E-01  7904   0.391E+00    0.105E+00
DAV:   3    -0.336594129051E+02    0.13320E-01   -0.48853E-02  7888   0.270E+00    0.329E-01
DAV:   4    -0.336590878625E+02    0.32504E-03   -0.58894E-03  7856   0.136E+00    0.201E-01
DAV:   5    -0.336586959946E+02    0.39187E-03   -0.81395E-04  9424   0.454E-01    0.339E-02
DAV:   6    -0.336587192560E+02   -0.23261E-04   -0.16694E-04  8816   0.217E-01    0.663E-02
DAV:   7    -0.336586903157E+02    0.28940E-04   -0.88674E-05  7632   0.186E-01    0.111E-02
DAV:   8    -0.336586893182E+02    0.99751E-06   -0.75720E-06  7984   0.253E-02    0.341E-03
DAV:   9    -0.336586890079E+02    0.31026E-06   -0.61656E-07  7760   0.756E-03    0.121E-03
DAV:  10    -0.336586889113E+02    0.96559E-07   -0.68359E-08  7296   0.337E-03    0.274E-04
DAV:  11    -0.336586888817E+02    0.29622E-07   -0.54337E-09  3856   0.109E-03    0.175E-04
DAV:  12    -0.336586888724E+02    0.93114E-08   -0.21431E-09  3648   0.616E-04
  13 F= -.33658689E+02 E0= -.33658899E+02  d E =-.632772E-04  mag=     0.0000
 trial-energy change:   -0.000063  1 .order   -0.000054   -0.000187    0.000078
 step:   0.9384(harm=  0.8894)  dis= 0.00100  next Energy=   -33.658699 (dE=-0.731E-04)
 bond charge predicted
       N       E                     dE             d eps       ncg     rms          rms(c)
DAV:   1    -0.336590795925E+02   -0.39071E-03   -0.75431E-03  8128   0.183E+00    0.230E-01
DAV:   2    -0.336595970684E+02   -0.51748E-03   -0.87881E-03  7904   0.996E-01    0.268E-01
DAV:   3    -0.336587445488E+02    0.85252E-03   -0.31186E-03  7840   0.672E-01    0.815E-02
DAV:   4    -0.336587248703E+02    0.19678E-04   -0.35630E-04  7904   0.332E-01    0.518E-02
DAV:   5    -0.336586999404E+02    0.24930E-04   -0.52677E-05  9376   0.117E-01    0.854E-03
DAV:   6    -0.336587022002E+02   -0.22598E-05   -0.12671E-05  8864   0.612E-02    0.188E-02
DAV:   7    -0.336586999081E+02    0.22921E-05   -0.68839E-06  7664   0.516E-02    0.278E-03
DAV:   8    -0.336587000956E+02   -0.18749E-06   -0.56676E-07  7936   0.647E-03    0.907E-04
DAV:   9    -0.336587001886E+02   -0.93047E-07   -0.41015E-08  7040   0.204E-03    0.341E-04
DAV:  10    -0.336587002152E+02   -0.26557E-07   -0.49490E-09  3728   0.975E-04    0.716E-05
DAV:  11    -0.336587002238E+02   -0.86438E-08   -0.91155E-10  3616   0.361E-04
  14 F= -.33658700E+02 E0= -.33658914E+02  d E =-.746286E-04  mag=     0.0000
 curvature:  -0.59 expect dE=-0.183E-04 dE for cont linesearch -0.148E-06
 trial: gam= 0.22198 g(F)=  0.892E-05 g(S)=  0.221E-04 ort =-0.708E-05 (trialstep = 0.120E+01)
 search vector abs. value=  0.378E-04
 bond charge predicted
       N       E                     dE             d eps       ncg     rms          rms(c)
DAV:   1    -0.336589213168E+02   -0.22110E-03   -0.17082E-02  8240   0.330E+00    0.277E-01
DAV:   2    -0.336598456536E+02   -0.92434E-03   -0.14807E-02  7728   0.124E+00    0.299E-01
DAV:   3    -0.336587925697E+02    0.10531E-02   -0.41588E-03  7776   0.755E-01    0.968E-02
DAV:   4    -0.336587790306E+02    0.13539E-04   -0.58302E-04  8064   0.420E-01    0.852E-02
DAV:   5    -0.336587140601E+02    0.64970E-04   -0.14411E-04  8480   0.216E-01    0.119E-02
DAV:   6    -0.336587148027E+02   -0.74257E-06   -0.18369E-05  7776   0.438E-02    0.968E-03
DAV:   7    -0.336587143963E+02    0.40639E-06   -0.27628E-06  7888   0.310E-02    0.389E-03
DAV:   8    -0.336587145593E+02   -0.16298E-06   -0.65079E-07  8256   0.116E-02    0.232E-03
DAV:   9    -0.336587146011E+02   -0.41839E-07   -0.16339E-07  7920   0.547E-03    0.506E-04
DAV:  10    -0.336587146377E+02   -0.36531E-07   -0.11067E-08  3648   0.135E-03    0.188E-04
DAV:  11    -0.336587146529E+02   -0.15216E-07   -0.27168E-09  3616   0.474E-04    0.577E-05
DAV:  12    -0.336587146553E+02   -0.24520E-08   -0.71511E-10  3568   0.257E-04
  15 F= -.33658715E+02 E0= -.33658917E+02  d E =-.144315E-04  mag=     0.0000
 trial-energy change:   -0.000014  1 .order   -0.000014   -0.000035    0.000007
 step:   1.0032(harm=  0.9945)  dis= 0.00056  next Energy=   -33.658715 (dE=-0.150E-04)
 bond charge predicted
       N       E                     dE             d eps       ncg     rms          rms(c)
DAV:   1    -0.336587203883E+02   -0.57354E-05   -0.44650E-04  8272   0.534E-01    0.447E-02
DAV:   2    -0.336587461964E+02   -0.25808E-04   -0.38684E-04  7680   0.200E-01    0.483E-02
DAV:   3    -0.336587176185E+02    0.28578E-04   -0.10898E-04  7792   0.121E-01    0.153E-02
DAV:   4    -0.336587172734E+02    0.34518E-06   -0.14890E-05  8112   0.669E-02    0.139E-02
DAV:   5    -0.336587153470E+02    0.19263E-05   -0.38783E-06  8416   0.358E-02    0.192E-03
DAV:   6    -0.336587152558E+02    0.91259E-07   -0.48023E-07  7696   0.661E-03    0.133E-03
DAV:   7    -0.336587152431E+02    0.12633E-07   -0.59962E-08  7184   0.446E-03    0.660E-04
DAV:   8    -0.336587152049E+02    0.38230E-07   -0.14259E-08  4064   0.195E-03    0.371E-04
DAV:   9    -0.336587151915E+02    0.13371E-07   -0.52179E-09  3584   0.972E-04    0.888E-05
DAV:  10    -0.336587151894E+02    0.20918E-08   -0.85507E-10  3456   0.295E-04
  16 F= -.33658715E+02 E0= -.33658919E+02  d E =-.149656E-04  mag=    -0.0000
 curvature:  -0.64 expect dE=-0.115E-05 dE for cont linesearch -0.174E-09
 trial: gam=-0.01125 g(F)=  0.727E-06 g(S)=  0.108E-05 ort = 0.102E-06 (trialstep = 0.116E+01)
 search vector abs. value=  0.181E-05
 reached required accuracy - stopping structural energy minimisation
 writing wavefunctions
