       N       E                     dE             d eps       ncg     rms          rms(c)
DAV:   1    -0.203592857372E+02   -0.20359E+02   -0.68719E-01  5040   0.102E+01    0.109E-01
DAV:   2    -0.203597086098E+02   -0.42287E-03   -0.25654E-03  6380   0.636E-01    0.173E-01
DAV:   3    -0.203593349461E+02    0.37366E-03   -0.10014E-03  6144   0.428E-01    0.386E-02
DAV:   4    -0.203593831687E+02   -0.48223E-04   -0.42595E-05  5656   0.607E-02    0.949E-03
DAV:   5    -0.203593805138E+02    0.26549E-05   -0.30471E-06  5396   0.202E-02    0.229E-03
DAV:   6    -0.203593774596E+02    0.30543E-05   -0.28162E-07  5408   0.449E-03    0.509E-04
DAV:   7    -0.203593775883E+02   -0.12871E-06   -0.20473E-08  4276   0.172E-03    0.210E-04
DAV:   8    -0.203593775047E+02    0.83555E-07   -0.21145E-09  2696   0.674E-04    0.366E-05
DAV:   9    -0.203593775302E+02   -0.25519E-07   -0.83376E-10  2576   0.406E-04    0.191E-05
DAV:  10    -0.203593775287E+02    0.15643E-08   -0.22484E-10  2544   0.164E-04
   1 F= -.20359378E+02 E0= -.20359378E+02  d E =0.000000E+00  mag=     0.0000
