 running on   24 total cores
 distrk:  each k-point on   24 cores,    1 groups
 distr:  one band on    6 cores,    4 groups
 using from now: INCAR     
 vasp.5.4.4.18Apr17-6-g9f103f2a35 (build Jan 03 2018 06:08:52) complex          
  
 POSCAR found :  2 types and       4 ions
 scaLAPACK will be used
 WARNING: for PREC=h ENMAX is automatically increase by 25 %
        this was not the case for versions prior to vasp.4.4
 WARNING: for PREC=h ENMAX is automatically increase by 25 %
        this was not the case for versions prior to vasp.4.4
 LDA part: xc-table for Pade appr. of Perdew
 POSCAR, INCAR and KPOINTS ok, starting setup
 FFT: planning ...
 WAVECAR not read
 entering main loop
       N       E                     dE             d eps       ncg     rms          rms(c)
DAV:   1     0.353256994634E+03    0.35326E+03   -0.22481E+04  6024   0.149E+03
DAV:   2    -0.959656093647E+01   -0.36285E+03   -0.34973E+03  5108   0.453E+02
DAV:   3    -0.233680600486E+02   -0.13771E+02   -0.13419E+02  5956   0.105E+02
DAV:   4    -0.236401627823E+02   -0.27210E+00   -0.27155E+00  5624   0.141E+01
DAV:   5    -0.236487708859E+02   -0.86081E-02   -0.86077E-02  5732   0.273E+00    0.237E+01
DAV:   6    -0.424483000751E+02   -0.18800E+02   -0.13302E+02  6416   0.161E+02    0.357E+01
DAV:   7    -0.199301719251E+02    0.22518E+02   -0.56511E+01  6104   0.954E+01    0.103E+01
DAV:   8    -0.191279766071E+02    0.80220E+00   -0.10491E+01  6628   0.291E+01    0.479E+00
DAV:   9    -0.189942937253E+02    0.13368E+00   -0.53082E-01  6300   0.686E+00    0.235E+00
DAV:  10    -0.189787600777E+02    0.15534E-01   -0.14997E-01  7268   0.351E+00    0.502E-01
DAV:  11    -0.189826689217E+02   -0.39088E-02   -0.13123E-02  5972   0.963E-01    0.484E-01
DAV:  12    -0.189814409104E+02    0.12280E-02   -0.66128E-03  6372   0.719E-01    0.873E-02
DAV:  13    -0.189817538293E+02   -0.31292E-03   -0.10674E-03  7008   0.342E-01    0.140E-01
DAV:  14    -0.189815963292E+02    0.15750E-03   -0.42431E-04  6732   0.188E-01    0.298E-02
DAV:  15    -0.189816035547E+02   -0.72256E-05   -0.11044E-04  6972   0.107E-01    0.344E-02
DAV:  16    -0.189815929367E+02    0.10618E-04   -0.38090E-05  6552   0.587E-02    0.481E-03
DAV:  17    -0.189815930454E+02   -0.10872E-06   -0.11318E-06  5612   0.947E-03    0.500E-03
DAV:  18    -0.189815927665E+02    0.27888E-06   -0.11396E-06  6472   0.977E-03    0.148E-03
DAV:  19    -0.189815927012E+02    0.65301E-07   -0.57582E-08  5676   0.216E-03    0.465E-04
DAV:  20    -0.189815926878E+02    0.13377E-07   -0.36982E-09  2904   0.580E-04    0.195E-04
DAV:  21    -0.189815926851E+02    0.27494E-08   -0.89424E-10  2804   0.265E-04
   1 F= -.18981593E+02 E0= -.18981605E+02  d E =-.189816E+02  mag=     0.0000
 curvature:   0.00 expect dE= 0.000E+00 dE for cont linesearch  0.000E+00
 trial: gam= 0.00000 g(F)=  0.779E+00 g(S)=  0.270E+01 ort = 0.000E+00 (trialstep = 0.100E+01)
 search vector abs. value=  0.348E+01
 bond charge predicted
       N       E                     dE             d eps       ncg     rms          rms(c)
DAV:   1    -0.126306508737E+03   -0.10732E+03   -0.14194E+03  5276   0.582E+02    0.765E+01
DAV:   2    -0.527460559788E+02    0.73560E+02   -0.58584E+02  6148   0.230E+02    0.498E+01
DAV:   3    -0.417650395578E+02    0.10981E+02   -0.25429E+02  6056   0.179E+02    0.369E+01
DAV:   4    -0.219955736702E+02    0.19769E+02   -0.53707E+01  5968   0.852E+01    0.105E+01
DAV:   5    -0.199035050444E+02    0.20921E+01   -0.68444E+00  5812   0.147E+01    0.391E+00
DAV:   6    -0.199398803855E+02   -0.36375E-01   -0.27562E+00  5944   0.157E+01    0.552E+00
DAV:   7    -0.196518224339E+02    0.28806E+00   -0.11049E+00  5896   0.113E+01    0.393E-01
DAV:   8    -0.196524868080E+02   -0.66437E-03   -0.21678E-02  5448   0.104E+00    0.141E-01
DAV:   9    -0.196521637568E+02    0.32305E-03   -0.11973E-03  5820   0.271E-01    0.387E-02
DAV:  10    -0.196522025514E+02   -0.38795E-04   -0.22885E-04  6184   0.138E-01    0.283E-02
DAV:  11    -0.196521958215E+02    0.67299E-05   -0.85068E-05  5540   0.939E-02    0.107E-02
DAV:  12    -0.196521938564E+02    0.19651E-05   -0.63637E-06  5636   0.286E-02    0.127E-03
DAV:  13    -0.196521938372E+02    0.19165E-07   -0.46636E-07  6348   0.462E-03    0.102E-03
DAV:  14    -0.196521937851E+02    0.52123E-07   -0.51103E-08  5120   0.126E-03    0.848E-04
DAV:  15    -0.196521937784E+02    0.67221E-08   -0.13953E-09  2892   0.281E-04
   2 F= -.19652194E+02 E0= -.19651757E+02  d E =-.670601E+00  mag=     0.0005
 trial-energy change:   -0.670601  1 .order   -0.896689   -3.480052    1.686673
 step:   0.6112(harm=  0.6736)  dis= 0.08363  next Energy=   -19.993412 (dE=-0.101E+01)
 bond charge predicted
       N       E                     dE             d eps       ncg     rms          rms(c)
DAV:   1    -0.508213322851E+02   -0.31169E+02   -0.28577E+02  5564   0.185E+02    0.600E+01
DAV:   2    -0.109214694206E+03   -0.58393E+02   -0.69357E+02  6208   0.357E+02    0.539E+01
DAV:   3    -0.302849485153E+02    0.78930E+02   -0.23992E+02  6104   0.148E+02    0.220E+01
DAV:   4    -0.213580309219E+02    0.89269E+01   -0.18434E+01  6116   0.477E+01    0.847E+00
DAV:   5    -0.203879619383E+02    0.97007E+00   -0.10974E+01  6636   0.163E+01    0.217E+00
DAV:   6    -0.200559022305E+02    0.33206E+00   -0.96402E-01  5864   0.705E+00    0.200E+00
DAV:   7    -0.200953053410E+02   -0.39403E-01   -0.88931E-01  5828   0.104E+01    0.338E+00
DAV:   8    -0.199760486351E+02    0.11926E+00   -0.16058E-01  7152   0.261E+00    0.139E+00
DAV:   9    -0.199594874720E+02    0.16561E-01   -0.31219E-02  7044   0.164E+00    0.397E-01
DAV:  10    -0.199579623163E+02    0.15252E-02   -0.25973E-03  7564   0.321E-01    0.195E-01
DAV:  11    -0.199574827354E+02    0.47958E-03   -0.12520E-03  7848   0.278E-01    0.228E-02
DAV:  12    -0.199575006462E+02   -0.17911E-04   -0.10012E-04  5368   0.653E-02    0.300E-02
DAV:  13    -0.199574986015E+02    0.20448E-05   -0.28907E-06  6068   0.148E-02    0.253E-02
DAV:  14    -0.199574943368E+02    0.42647E-05   -0.60909E-06  7084   0.252E-02    0.110E-02
DAV:  15    -0.199574933252E+02    0.10116E-05   -0.42102E-06  7344   0.175E-02    0.718E-04
DAV:  16    -0.199574934458E+02   -0.12062E-06   -0.33862E-07  6860   0.387E-03    0.224E-03
DAV:  17    -0.199574933232E+02    0.12260E-06   -0.14835E-07  6412   0.369E-03    0.224E-04
DAV:  18    -0.199574933135E+02    0.97716E-08   -0.49761E-09  2760   0.547E-04
   3 F= -.19957493E+02 E0= -.19957412E+02  d E =-.975901E+00  mag=    -0.0001
 curvature:  -0.32 expect dE=-0.722E-01 dE for cont linesearch -0.104E-03
 trial: gam= 0.07355 g(F)=  0.138E+00 g(S)=  0.845E-01 ort =-0.334E-01 (trialstep = 0.922E+00)
 search vector abs. value=  0.236E+00
 bond charge predicted
       N       E                     dE             d eps       ncg     rms          rms(c)
DAV:   1    -0.214616859604E+02   -0.15042E+01   -0.15003E+01  5472   0.425E+01    0.130E+01
DAV:   2    -0.263098789052E+02   -0.48482E+01   -0.39826E+01  6176   0.750E+01    0.200E+01
DAV:   3    -0.201641403999E+02    0.61457E+01   -0.15504E+01  6144   0.512E+01    0.211E+00
DAV:   4    -0.202155758056E+02   -0.51435E-01   -0.13125E+00  6844   0.930E+00    0.329E+00
DAV:   5    -0.201177883721E+02    0.97787E-01   -0.39064E-01  6500   0.613E+00    0.336E-01
DAV:   6    -0.201193022118E+02   -0.15138E-02   -0.13003E-02  6100   0.954E-01    0.546E-01
DAV:   7    -0.201162033949E+02    0.30988E-02   -0.98303E-03  6404   0.103E+00    0.330E-02
DAV:   8    -0.201162182695E+02   -0.14875E-04   -0.39648E-04  5648   0.142E-01    0.120E-02
DAV:   9    -0.201162102630E+02    0.80065E-05   -0.26945E-05  5840   0.461E-02    0.670E-03
DAV:  10    -0.201162091404E+02    0.11226E-05   -0.43071E-06  7088   0.133E-02    0.172E-03
DAV:  11    -0.201162092107E+02   -0.70326E-07   -0.67948E-07  6008   0.523E-03    0.370E-03
DAV:  12    -0.201162090891E+02    0.12162E-06   -0.35315E-07  6396   0.540E-03    0.455E-04
DAV:  13    -0.201162090993E+02   -0.10206E-07   -0.31755E-08  5096   0.134E-03    0.401E-04
DAV:  14    -0.201162090928E+02    0.65211E-08   -0.83621E-09  2720   0.995E-04
   4 F= -.20116209E+02 E0= -.20116323E+02  d E =-.158716E+00  mag=    -0.0000
 trial-energy change:   -0.158716  1 .order   -0.160005   -0.202984   -0.117026
 step:   2.6059(harm=  2.1778)  dis= 0.17655  next Energy=   -20.215188 (dE=-0.258E+00)
 bond charge predicted
       N       E                     dE             d eps       ncg     rms          rms(c)
DAV:   1    -0.246244260490E+02   -0.45082E+01   -0.51911E+01  5536   0.792E+01    0.236E+01
DAV:   2    -0.362263717000E+02   -0.11602E+02   -0.12360E+02  6128   0.139E+02    0.288E+01
DAV:   3    -0.205777366319E+02    0.15649E+02   -0.39346E+01  6128   0.840E+01    0.521E+00
DAV:   4    -0.206780578312E+02   -0.10032E+00   -0.78558E+00  6664   0.246E+01    0.768E+00
DAV:   5    -0.201573098288E+02    0.52075E+00   -0.18912E+00  6568   0.135E+01    0.857E-01
DAV:   6    -0.201676947750E+02   -0.10385E-01   -0.13769E-01  6776   0.367E+00    0.110E+00
DAV:   7    -0.201530195099E+02    0.14675E-01   -0.41537E-02  6416   0.224E+00    0.149E-01
DAV:   8    -0.201529960760E+02    0.23434E-04   -0.18116E-03  5624   0.390E-01    0.162E-02
DAV:   9    -0.201529883013E+02    0.77747E-05   -0.51557E-05  5792   0.814E-02    0.726E-03
DAV:  10    -0.201529880432E+02    0.25815E-06   -0.10105E-05  7956   0.266E-02    0.884E-03
DAV:  11    -0.201529870971E+02    0.94609E-06   -0.18688E-06  6660   0.109E-02    0.434E-03
DAV:  12    -0.201529869826E+02    0.11452E-06   -0.10929E-06  6840   0.105E-02    0.940E-04
DAV:  13    -0.201529869529E+02    0.29685E-07   -0.94076E-08  6140   0.265E-03    0.640E-05
DAV:  14    -0.201529869520E+02    0.87311E-09   -0.22517E-09  2700   0.445E-04
   5 F= -.20152987E+02 E0= -.20152538E+02  d E =-.195494E+00  mag=     0.0000
 curvature:  -1.03 expect dE=-0.330E+00 dE for cont linesearch -0.303E-01
 ZBRENT: interpolating
 opt :   1.9387  next Energy=   -20.180770 (dE=-0.223E+00)
 bond charge predicted
       N       E                     dE             d eps       ncg     rms          rms(c)
DAV:   1    -0.208389559326E+02   -0.68597E+00   -0.77733E+00  5488   0.341E+01    0.826E+00
DAV:   2    -0.227445567390E+02   -0.19056E+01   -0.22012E+01  6184   0.473E+01    0.160E+01
DAV:   3    -0.202235895351E+02    0.25210E+01   -0.10322E+01  6248   0.328E+01    0.208E+00
DAV:   4    -0.201878786490E+02    0.35711E-01   -0.18441E-01  5376   0.383E+00    0.789E-01
DAV:   5    -0.201815720254E+02    0.63066E-02   -0.18752E-02  7216   0.122E+00    0.970E-02
DAV:   6    -0.201815340821E+02    0.37943E-04   -0.12272E-03  5376   0.457E-01    0.902E-02
DAV:   7    -0.201814835022E+02    0.50580E-04   -0.20833E-04  6368   0.163E-01    0.112E-02
DAV:   8    -0.201814842156E+02   -0.71347E-06   -0.71856E-06  5384   0.251E-02    0.425E-03
DAV:   9    -0.201814843251E+02   -0.10949E-06   -0.76900E-07  6164   0.120E-02    0.544E-04
DAV:  10    -0.201814843276E+02   -0.25075E-08   -0.51094E-08  5684   0.261E-03
   6 F= -.20181484E+02 E0= -.20181398E+02  d E =-.223991E+00  mag=    -0.0000
 curvature:  -0.95 expect dE=-0.101E+00 dE for cont linesearch -0.384E-05
 trial: gam= 0.62844 g(F)=  0.194E-01 g(S)=  0.877E-01 ort = 0.979E-03 (trialstep = 0.113E+01)
 search vector abs. value=  0.202E+00
 bond charge predicted
       N       E                     dE             d eps       ncg     rms          rms(c)
DAV:   1    -0.223701693267E+02   -0.21887E+01   -0.44831E+01  5576   0.179E+02    0.167E+01
DAV:   2    -0.294958919650E+02   -0.71257E+01   -0.94688E+01  6168   0.101E+02    0.308E+01
DAV:   3    -0.205010416345E+02    0.89949E+01   -0.35371E+01  6232   0.637E+01    0.518E+00
DAV:   4    -0.202889944773E+02    0.21205E+00   -0.12313E+00  5816   0.105E+01    0.175E+00
DAV:   5    -0.202506138530E+02    0.38381E-01   -0.98722E-02  6912   0.247E+00    0.229E-01
DAV:   6    -0.202501238475E+02    0.49001E-03   -0.93468E-03  5608   0.877E-01    0.151E-01
DAV:   7    -0.202499296593E+02    0.19419E-03   -0.41185E-04  5768   0.275E-01    0.608E-02
DAV:   8    -0.202499110106E+02    0.18649E-04   -0.12363E-04  7040   0.114E-01    0.114E-02
DAV:   9    -0.202499109988E+02    0.11762E-07   -0.70422E-06  5616   0.233E-02    0.416E-03
DAV:  10    -0.202499108997E+02    0.99105E-07   -0.57419E-07  5884   0.143E-02    0.104E-03
DAV:  11    -0.202499109281E+02   -0.28422E-07   -0.59077E-08  5432   0.196E-03    0.276E-04
DAV:  12    -0.202499109535E+02   -0.25366E-07   -0.42757E-09  2704   0.108E-03    0.775E-05
DAV:  13    -0.202499109542E+02   -0.66211E-09   -0.11295E-09  2624   0.401E-04
   7 F= -.20249911E+02 E0= -.20249744E+02  d E =-.684266E-01  mag=    -0.0000
 trial-energy change:   -0.068427  1 .order   -0.070755   -0.121218   -0.020292
 step:   1.3989(harm=  1.3518)  dis= 0.06296  next Energy=   -20.252342 (dE=-0.709E-01)
 bond charge predicted
       N       E                     dE             d eps       ncg     rms          rms(c)
DAV:   1    -0.203785700604E+02   -0.12866E+00   -0.25407E+00  6040   0.428E+01    0.422E+00
DAV:   2    -0.208905092933E+02   -0.51194E+00   -0.48547E+00  6152   0.252E+01    0.797E+00
DAV:   3    -0.202632132952E+02    0.62730E+00   -0.25462E+00  6208   0.168E+01    0.105E+00
DAV:   4    -0.202530282391E+02    0.10185E-01   -0.38104E-02  5760   0.200E+00    0.332E-01
DAV:   5    -0.202518946592E+02    0.11336E-02   -0.34292E-03  6864   0.497E-01    0.548E-02
DAV:   6    -0.202518891566E+02    0.55026E-05   -0.37435E-04  5352   0.289E-01    0.617E-02
DAV:   7    -0.202518633709E+02    0.25786E-04   -0.72245E-05  6208   0.976E-02    0.492E-03
DAV:   8    -0.202518629065E+02    0.46443E-06   -0.43853E-06  5944   0.204E-02    0.325E-03
DAV:   9    -0.202518629781E+02   -0.71638E-07   -0.30782E-07  5540   0.643E-03    0.696E-04
DAV:  10    -0.202518630082E+02   -0.30048E-07   -0.13552E-08  3304   0.143E-03    0.435E-04
DAV:  11    -0.202518630237E+02   -0.15515E-07   -0.46464E-09  2632   0.710E-04    0.683E-05
DAV:  12    -0.202518630257E+02   -0.19891E-08   -0.11665E-09  2632   0.333E-04
   8 F= -.20251863E+02 E0= -.20251637E+02  d E =-.703787E-01  mag=     0.0000
 curvature:  -1.21 expect dE=-0.447E-01 dE for cont linesearch -0.191E-03
 trial: gam= 0.56526 g(F)=  0.235E-02 g(S)=  0.346E-01 ort =-0.563E-02 (trialstep = 0.118E+01)
 search vector abs. value=  0.950E-01
 bond charge predicted
       N       E                     dE             d eps       ncg     rms          rms(c)
DAV:   1    -0.203904290986E+02   -0.13857E+00   -0.22748E+01  6016   0.155E+02    0.962E+00
DAV:   2    -0.229231908342E+02   -0.25328E+01   -0.24125E+01  6144   0.549E+01    0.133E+01
DAV:   3    -0.203452821300E+02    0.25779E+01   -0.73571E+00  6128   0.364E+01    0.224E+00
DAV:   4    -0.202865285065E+02    0.58754E-01   -0.28107E-01  5528   0.384E+00    0.110E+00
DAV:   5    -0.202731410246E+02    0.13387E-01   -0.56107E-02  6016   0.245E+00    0.175E-01
DAV:   6    -0.202729937094E+02    0.14732E-03   -0.30463E-03  5600   0.539E-01    0.102E-01
DAV:   7    -0.202730472810E+02   -0.53572E-04   -0.76226E-04  6696   0.325E-01    0.703E-02
DAV:   8    -0.202729854500E+02    0.61831E-04   -0.34053E-04  6816   0.171E-01    0.136E-02
DAV:   9    -0.202729830554E+02    0.23946E-05   -0.14196E-05  5456   0.340E-02    0.178E-02
DAV:  10    -0.202729793200E+02    0.37354E-05   -0.13342E-05  6944   0.379E-02    0.201E-03
DAV:  11    -0.202729792586E+02    0.61423E-07   -0.81168E-07  5460   0.654E-03    0.778E-04
DAV:  12    -0.202729792060E+02    0.52604E-07   -0.39094E-08  5692   0.184E-03    0.197E-04
DAV:  13    -0.202729792024E+02    0.35543E-08   -0.51565E-09  2704   0.837E-04
   9 F= -.20272979E+02 E0= -.20272529E+02  d E =-.211162E-01  mag=    -0.0000
 trial-energy change:   -0.021116  1 .order   -0.021786   -0.039797   -0.003775
 step:   1.3215(harm=  1.3039)  dis= 0.03027  next Energy=   -20.273204 (dE=-0.213E-01)
 bond charge predicted
       N       E                     dE             d eps       ncg     rms          rms(c)
DAV:   1    -0.202758163491E+02   -0.28371E-02   -0.34310E-01  6328   0.181E+01    0.109E+00
DAV:   2    -0.203097688157E+02   -0.33952E-01   -0.31657E-01  6172   0.645E+00    0.170E+00
DAV:   3    -0.202746521512E+02    0.35117E-01   -0.11663E-01  6144   0.414E+00    0.332E-01
DAV:   4    -0.202732759354E+02    0.13762E-02   -0.38503E-03  5532   0.698E-01    0.321E-02
DAV:   5    -0.202732657647E+02    0.10171E-04   -0.29314E-04  5460   0.197E-01    0.186E-02
DAV:   6    -0.202732620508E+02    0.37139E-05   -0.18412E-05  6392   0.453E-02    0.936E-03
DAV:   7    -0.202732619525E+02    0.98350E-07   -0.31898E-06  5772   0.214E-02    0.271E-03
DAV:   8    -0.202732618108E+02    0.14167E-06   -0.46712E-07  5564   0.912E-03    0.848E-04
DAV:   9    -0.202732617464E+02    0.64408E-07   -0.45509E-08  5320   0.272E-03    0.209E-04
DAV:  10    -0.202732617359E+02    0.10466E-07   -0.22665E-09  2724   0.555E-04    0.529E-05
DAV:  11    -0.202732617349E+02    0.10668E-08   -0.39347E-10  2704   0.221E-04
  10 F= -.20273262E+02 E0= -.20272937E+02  d E =-.213987E-01  mag=    -0.0000
 curvature:  -1.80 expect dE=-0.151E-01 dE for cont linesearch -0.118E-06
 trial: gam= 0.03599 g(F)=  0.537E-02 g(S)=  0.302E-02 ort =-0.789E-04 (trialstep = 0.121E+01)
 search vector abs. value=  0.850E-02
 bond charge predicted
       N       E                     dE             d eps       ncg     rms          rms(c)
DAV:   1    -0.203339448745E+02   -0.60683E-01   -0.13633E+00  6464   0.271E+01    0.262E+00
DAV:   2    -0.205045116869E+02   -0.17057E+00   -0.16193E+00  6168   0.155E+01    0.424E+00
DAV:   3    -0.202875317809E+02    0.21698E+00   -0.67909E-01  6152   0.104E+01    0.665E-01
DAV:   4    -0.202821655955E+02    0.53662E-02   -0.20933E-02  5504   0.124E+00    0.151E-01
DAV:   5    -0.202820333091E+02    0.13229E-03   -0.16729E-03  5624   0.478E-01    0.352E-02
DAV:   6    -0.202820248878E+02    0.84214E-05   -0.58316E-05  6368   0.839E-02    0.181E-02
DAV:   7    -0.202820253368E+02   -0.44906E-06   -0.10007E-05  5516   0.362E-02    0.316E-03
DAV:   8    -0.202820250484E+02    0.28846E-06   -0.75103E-07  5864   0.100E-02    0.966E-04
DAV:   9    -0.202820249669E+02    0.81498E-07   -0.37505E-08  5372   0.210E-03    0.219E-04
DAV:  10    -0.202820249546E+02    0.12279E-07   -0.42134E-09  2736   0.101E-03    0.951E-05
DAV:  11    -0.202820249538E+02    0.83674E-09   -0.80429E-10  2700   0.284E-04
  11 F= -.20282025E+02 E0= -.20281971E+02  d E =-.876322E-02  mag=     0.0000
 trial-energy change:   -0.008763  1 .order   -0.008612   -0.010131   -0.007093
 step:   2.8608(harm=  4.0298)  dis= 0.02828  next Energy=   -20.287261 (dE=-0.140E-01)
 bond charge predicted
       N       E                     dE             d eps       ncg     rms          rms(c)
DAV:   1    -0.203846592233E+02   -0.10263E+00   -0.25849E+00  6488   0.373E+01    0.360E+00
DAV:   2    -0.206886289004E+02   -0.30397E+00   -0.29224E+00  6192   0.211E+01    0.567E+00
DAV:   3    -0.202990626878E+02    0.38957E+00   -0.11953E+00  6136   0.142E+01    0.929E-01
DAV:   4    -0.202883968467E+02    0.10666E-01   -0.39544E-02  5712   0.171E+00    0.212E-01
DAV:   5    -0.202881444909E+02    0.25236E-03   -0.31972E-03  5648   0.682E-01    0.476E-02
DAV:   6    -0.202881276783E+02    0.16813E-04   -0.10948E-04  5552   0.116E-01    0.236E-02
DAV:   7    -0.202881288636E+02   -0.11853E-05   -0.17588E-05  5408   0.483E-02    0.379E-03
DAV:   8    -0.202881283437E+02    0.51995E-06   -0.14280E-06  5872   0.141E-02    0.128E-03
DAV:   9    -0.202881282408E+02    0.10282E-06   -0.69445E-08  5624   0.278E-03    0.291E-04
DAV:  10    -0.202881282194E+02    0.21481E-07   -0.74171E-09  2808   0.126E-03    0.780E-05
DAV:  11    -0.202881282208E+02   -0.14343E-08   -0.15751E-09  2696   0.463E-04
  12 F= -.20288128E+02 E0= -.20288371E+02  d E =-.148665E-01  mag=     0.0000
 curvature:  -1.69 expect dE=-0.156E-02 dE for cont linesearch -0.390E-03
 ZBRENT: extrapolating
 opt :   3.3779  next Energy=   -20.288490 (dE=-0.152E-01)
 bond charge predicted
       N       E                     dE             d eps       ncg     rms          rms(c)
DAV:   1    -0.202979831713E+02   -0.98550E-02   -0.25572E-01  6488   0.116E+01    0.110E+00
DAV:   2    -0.203238451640E+02   -0.25862E-01   -0.26720E-01  6208   0.646E+00    0.172E+00
DAV:   3    -0.202897768139E+02    0.34068E-01   -0.11216E-01  6160   0.424E+00    0.315E-01
DAV:   4    -0.202884857559E+02    0.12911E-02   -0.42386E-03  6000   0.648E-01    0.374E-02
DAV:   5    -0.202884863878E+02   -0.63186E-06   -0.30641E-04  5440   0.204E-01    0.156E-02
DAV:   6    -0.202884846756E+02    0.17122E-05   -0.97126E-06  7320   0.380E-02    0.877E-03
DAV:   7    -0.202884842029E+02    0.47272E-06   -0.26424E-06  5616   0.151E-02    0.128E-03
DAV:   8    -0.202884841107E+02    0.92125E-07   -0.15655E-07  6248   0.512E-03    0.509E-04
DAV:   9    -0.202884840779E+02    0.32846E-07   -0.78683E-09  2808   0.102E-03    0.834E-05
DAV:  10    -0.202884840709E+02    0.69467E-08   -0.25396E-09  2656   0.722E-04
  13 F= -.20288484E+02 E0= -.20288754E+02  d E =-.152223E-01  mag=    -0.0000
 curvature:  -1.57 expect dE=-0.159E-02 dE for cont linesearch -0.152E-09
 trial: gam= 0.09920 g(F)=  0.951E-03 g(S)=  0.619E-04 ort = 0.908E-06 (trialstep = 0.164E+01)
 search vector abs. value=  0.110E-02
 bond charge predicted
       N       E                     dE             d eps       ncg     rms          rms(c)
DAV:   1    -0.202442344943E+02    0.44250E-01   -0.15850E+00  7576   0.526E+01    0.640E-01
DAV:   2    -0.202998803033E+02   -0.55646E-01   -0.54506E-01  5512   0.686E+00    0.988E-01
DAV:   3    -0.202896511934E+02    0.10229E-01   -0.46107E-02  6128   0.284E+00    0.150E-01
DAV:   4    -0.202895839715E+02    0.67222E-04   -0.12131E-03  5896   0.291E-01    0.102E-01
DAV:   5    -0.202894762690E+02    0.10770E-03   -0.13995E-04  6344   0.259E-01    0.285E-02
DAV:   6    -0.202894692315E+02    0.70375E-05   -0.36475E-05  6112   0.896E-02    0.540E-03
DAV:   7    -0.202894685271E+02    0.70433E-06   -0.52323E-06  5544   0.367E-02    0.174E-03
DAV:   8    -0.202894684536E+02    0.73529E-07   -0.28108E-07  6340   0.612E-03    0.906E-04
DAV:   9    -0.202894684574E+02   -0.38308E-08   -0.15324E-08  3148   0.355E-03
  14 F= -.20289468E+02 E0= -.20289667E+02  d E =-.984386E-03  mag=    -0.0000
 trial-energy change:   -0.000984  1 .order   -0.000948   -0.001664   -0.000233
 step:   1.8710(harm=  1.9103)  dis= 0.00950  next Energy=   -20.289485 (dE=-0.100E-02)
 bond charge predicted
       N       E                     dE             d eps       ncg     rms          rms(c)
DAV:   1    -0.202885892278E+02    0.87923E-03   -0.30591E-02  7516   0.733E+00    0.887E-02
DAV:   2    -0.202896894012E+02   -0.11002E-02   -0.10791E-02  5520   0.961E-01    0.136E-01
DAV:   3    -0.202894932147E+02    0.19619E-03   -0.87470E-04  6164   0.394E-01    0.219E-02
DAV:   4    -0.202894913657E+02    0.18490E-05   -0.20611E-05  5896   0.407E-02    0.151E-02
DAV:   5    -0.202894886010E+02    0.27647E-05   -0.34436E-06  6364   0.442E-02    0.335E-03
DAV:   6    -0.202894883631E+02    0.23787E-06   -0.85447E-07  6104   0.114E-02    0.810E-04
DAV:   7    -0.202894882983E+02    0.64806E-07   -0.87703E-08  5632   0.556E-03    0.327E-04
DAV:   8    -0.202894882751E+02    0.23209E-07   -0.58940E-09  2636   0.108E-03    0.182E-04
DAV:   9    -0.202894882781E+02   -0.30113E-08   -0.11986E-09  2604   0.762E-04
  15 F= -.20289488E+02 E0= -.20289678E+02  d E =-.100421E-02  mag=     0.0000
 curvature:  -1.01 expect dE=-0.203E-03 dE for cont linesearch -0.493E-06
 trial: gam= 0.20680 g(F)=  0.184E-04 g(S)=  0.182E-03 ort = 0.231E-04 (trialstep = 0.169E+01)
 search vector abs. value=  0.257E-03
 bond charge predicted
       N       E                     dE             d eps       ncg     rms          rms(c)
DAV:   1    -0.203111681583E+02   -0.21680E-01   -0.33116E-01  5784   0.165E+01    0.173E+00
DAV:   2    -0.203886080677E+02   -0.77440E-01   -0.68739E-01  6224   0.100E+01    0.288E+00
DAV:   3    -0.202898386735E+02    0.98769E-01   -0.32706E-01  6196   0.692E+00    0.288E-01
DAV:   4    -0.202894090567E+02    0.42962E-03   -0.46784E-03  5424   0.718E-01    0.911E-02
DAV:   5    -0.202893318956E+02    0.77161E-04   -0.14958E-04  5648   0.116E-01    0.463E-02
DAV:   6    -0.202893143934E+02    0.17502E-04   -0.30455E-05  7164   0.580E-02    0.508E-03
DAV:   7    -0.202893149395E+02   -0.54611E-06   -0.24647E-06  5308   0.229E-02    0.145E-03
DAV:   8    -0.202893150801E+02   -0.14061E-06   -0.12887E-07  6532   0.492E-03    0.492E-04
DAV:   9    -0.202893151519E+02   -0.71809E-07   -0.13279E-08  2876   0.157E-03    0.875E-05
DAV:  10    -0.202893151673E+02   -0.15364E-07   -0.18736E-09  2740   0.421E-04    0.519E-05
DAV:  11    -0.202893151705E+02   -0.31969E-08   -0.34508E-10  2632   0.237E-04
  16 F= -.20289315E+02 E0= -.20289475E+02  d E =0.173108E-03  mag=    -0.0000
 trial-energy change:    0.000173  1 .order    0.000169   -0.000347    0.000685
 step:   0.5587(harm=  0.5677)  dis= 0.00076  next Energy=   -20.289546 (dE=-0.573E-04)
 bond charge predicted
       N       E                     dE             d eps       ncg     rms          rms(c)
DAV:   1    -0.202992157773E+02   -0.99006E-02   -0.14639E-01  5696   0.111E+01    0.116E+00
DAV:   2    -0.203343352825E+02   -0.35120E-01   -0.29539E-01  6200   0.674E+00    0.192E+00
DAV:   3    -0.202897573731E+02    0.44578E-01   -0.13653E-01  6192   0.467E+00    0.182E-01
DAV:   4    -0.202896031453E+02    0.15423E-03   -0.18534E-03  5408   0.424E-01    0.755E-02
DAV:   5    -0.202895494210E+02    0.53724E-04   -0.84530E-05  6668   0.108E-01    0.165E-02
DAV:   6    -0.202895451080E+02    0.43130E-05   -0.74098E-06  5560   0.258E-02    0.373E-03
DAV:   7    -0.202895448907E+02    0.21725E-06   -0.13520E-06  5760   0.150E-02    0.268E-03
DAV:   8    -0.202895446689E+02    0.22187E-06   -0.25041E-07  5572   0.659E-03    0.263E-04
DAV:   9    -0.202895446463E+02    0.22604E-07   -0.76012E-09  2984   0.853E-04    0.120E-04
DAV:  10    -0.202895446388E+02    0.74151E-08   -0.17095E-09  2700   0.529E-04
  17 F= -.20289545E+02 E0= -.20289725E+02  d E =-.563607E-04  mag=    -0.0000
 curvature:  -0.36 expect dE=-0.541E-05 dE for cont linesearch -0.159E-07
 trial: gam= 0.08839 g(F)=  0.224E-05 g(S)=  0.130E-04 ort = 0.339E-05 (trialstep = 0.146E+01)
 search vector abs. value=  0.178E-04
 bond charge predicted
       N       E                     dE             d eps       ncg     rms          rms(c)
DAV:   1    -0.202896378679E+02   -0.93222E-04   -0.62863E-03  6464   0.221E+00    0.136E-01
DAV:   2    -0.202900245998E+02   -0.38673E-03   -0.42266E-03  6160   0.808E-01    0.194E-01
DAV:   3    -0.202896004442E+02    0.42416E-03   -0.14634E-03  6160   0.484E-01    0.487E-02
DAV:   4    -0.202895677812E+02    0.32663E-04   -0.82896E-05  6072   0.102E-01    0.383E-03
DAV:   5    -0.202895679294E+02   -0.14814E-06   -0.67306E-06  5480   0.301E-02    0.206E-03
DAV:   6    -0.202895678709E+02    0.58448E-07   -0.18803E-07  6520   0.466E-03    0.123E-03
DAV:   7    -0.202895678161E+02    0.54846E-07   -0.47943E-08  4444   0.304E-03    0.186E-04
DAV:   8    -0.202895678126E+02    0.35425E-08   -0.43623E-09  2692   0.120E-03
  18 F= -.20289568E+02 E0= -.20289732E+02  d E =-.231737E-04  mag=     0.0000
 ZBRENT: can't locate minimum, use default step
 trial-energy change:   -0.000023  1 .order   -0.000021   -0.000023   -0.000020
 step:   5.8489(harm= 12.5494)  dis= 0.00157  next Energy=   -20.289642 (dE=-0.974E-04)
 bond charge predicted
       N       E                     dE             d eps       ncg     rms          rms(c)
DAV:   1    -0.202902615642E+02   -0.69375E-03   -0.56747E-02  6480   0.664E+00    0.410E-01
DAV:   2    -0.202937460610E+02   -0.34845E-02   -0.37811E-02  6160   0.241E+00    0.586E-01
DAV:   3    -0.202899157110E+02    0.38303E-02   -0.13148E-02  6160   0.146E+00    0.146E-01
DAV:   4    -0.202896249114E+02    0.29080E-03   -0.74736E-04  6056   0.303E-01    0.117E-02
DAV:   5    -0.202896264834E+02   -0.15721E-05   -0.60294E-05  5480   0.893E-02    0.630E-03
DAV:   6    -0.202896263329E+02    0.15049E-06   -0.17188E-06  6616   0.143E-02    0.369E-03
DAV:   7    -0.202896262559E+02    0.77025E-07   -0.44326E-07  5880   0.916E-03    0.561E-04
DAV:   8    -0.202896262328E+02    0.23088E-07   -0.39266E-08  4832   0.338E-03    0.320E-04
DAV:   9    -0.202896262191E+02    0.13681E-07   -0.32480E-09  2724   0.670E-04    0.344E-05
DAV:  10    -0.202896262170E+02    0.21091E-08   -0.57060E-10  2632   0.274E-04
  19 F= -.20289626E+02 E0= -.20289739E+02  d E =-.815782E-04  mag=    -0.0000
 curvature:  -4.58 expect dE=-0.196E-03 dE for cont linesearch -0.492E-04
 ZBRENT: increasing intervall
 opt :  14.6222  next Energy=   -20.289749 (dE=-0.204E-03)
 bond charge predicted
       N       E                     dE             d eps       ncg     rms          rms(c)
DAV:   1    -0.202923161414E+02   -0.26899E-02   -0.22779E-01  6496   0.133E+01    0.824E-01
DAV:   2    -0.203064654310E+02   -0.14149E-01   -0.15054E-01  6160   0.482E+00    0.118E+00
DAV:   3    -0.202909187595E+02    0.15547E-01   -0.52481E-02  6144   0.293E+00    0.292E-01
DAV:   4    -0.202897792516E+02    0.11395E-02   -0.29636E-03  5992   0.587E-01    0.238E-02
DAV:   5    -0.202897849095E+02   -0.56579E-05   -0.23062E-04  5480   0.173E-01    0.130E-02
DAV:   6    -0.202897847802E+02    0.12930E-06   -0.67711E-06  6672   0.289E-02    0.742E-03
DAV:   7    -0.202897849367E+02   -0.15653E-06   -0.17882E-06  5896   0.183E-02    0.112E-03
DAV:   8    -0.202897848606E+02    0.76169E-07   -0.15555E-07  6300   0.661E-03    0.613E-04
DAV:   9    -0.202897848281E+02    0.32444E-07   -0.11414E-08  2876   0.120E-03    0.694E-05
DAV:  10    -0.202897848260E+02    0.20727E-08   -0.18930E-09  2672   0.537E-04
  20 F= -.20289785E+02 E0= -.20289826E+02  d E =-.240187E-03  mag=     0.0000
 curvature: -11.41 expect dE=-0.336E-02 dE for cont linesearch -0.371E-03
 ZBRENT: increasing intervall
 opt :  32.1688  next Energy=   -20.290387 (dE=-0.842E-03)
 bond charge predicted
       N       E                     dE             d eps       ncg     rms          rms(c)
DAV:   1    -0.203007350357E+02   -0.10950E-01   -0.91748E-01  6496   0.267E+01    0.166E+00
DAV:   2    -0.203569914573E+02   -0.56256E-01   -0.59822E-01  6184   0.965E+00    0.232E+00
DAV:   3    -0.202946309352E+02    0.62361E-01   -0.20282E-01  6152   0.589E+00    0.562E-01
DAV:   4    -0.202904124885E+02    0.42184E-02   -0.10968E-02  5900   0.107E+00    0.474E-02
DAV:   5    -0.202904443461E+02   -0.31858E-04   -0.80495E-04  5460   0.323E-01    0.261E-02
DAV:   6    -0.202904449049E+02   -0.55877E-06   -0.22853E-05  6648   0.524E-02    0.145E-02
DAV:   7    -0.202904466325E+02   -0.17276E-05   -0.65673E-06  5776   0.358E-02    0.215E-03
DAV:   8    -0.202904463447E+02    0.28782E-06   -0.62564E-07  6248   0.133E-02    0.111E-03
DAV:   9    -0.202904462781E+02    0.66598E-07   -0.42403E-08  5248   0.224E-03    0.147E-04
DAV:  10    -0.202904462691E+02    0.89904E-08   -0.24999E-09  2736   0.649E-04
  21 F= -.20290446E+02 E0= -.20290615E+02  d E =-.901630E-03  mag=     0.0000
 curvature: -18.52 expect dE=-0.310E-01 dE for cont linesearch -0.222E-02
 ZBRENT: increasing intervall
 opt :  67.2621  next Energy=   -20.292846 (dE=-0.330E-02)
 bond charge predicted
       N       E                     dE             d eps       ncg     rms          rms(c)
DAV:   1    -0.203381491616E+02   -0.47703E-01   -0.37198E+00  6528   0.539E+01    0.340E+00
DAV:   2    -0.205661009079E+02   -0.22795E+00   -0.23924E+00  6160   0.196E+01    0.466E+00
DAV:   3    -0.203079569980E+02    0.25814E+00   -0.79687E-01  6144   0.121E+01    0.112E+00
DAV:   4    -0.202904139451E+02    0.17543E-01   -0.43912E-02  5940   0.204E+00    0.119E-01
DAV:   5    -0.202905246211E+02   -0.11068E-03   -0.30610E-03  5484   0.645E-01    0.504E-02
DAV:   6    -0.202905182592E+02    0.63620E-05   -0.87225E-05  6036   0.105E-01    0.264E-02
DAV:   7    -0.202905238554E+02   -0.55962E-05   -0.20842E-05  5700   0.631E-02    0.408E-03
DAV:   8    -0.202905227914E+02    0.10640E-05   -0.27087E-06  5936   0.248E-02    0.198E-03
DAV:   9    -0.202905226911E+02    0.10036E-06   -0.16084E-07  5728   0.557E-03    0.594E-04
DAV:  10    -0.202905226642E+02    0.26886E-07   -0.29504E-08  4416   0.225E-03    0.178E-04
DAV:  11    -0.202905226553E+02    0.88612E-08   -0.30930E-09  2676   0.753E-04
  22 F= -.20290523E+02 E0= -.20290551E+02  d E =-.978016E-03  mag=    -0.0000
 curvature: -20.03 expect dE=-0.939E-01 dE for cont linesearch -0.153E-02
 ZBRENT: bracketing found
 ZBRENT: interpolating
 opt :  51.6848  next Energy=   -20.290810 (dE=-0.127E-02)
 bond charge predicted
       N       E                     dE             d eps       ncg     rms          rms(c)
DAV:   1    -0.203005895690E+02   -0.10067E-01   -0.73721E-01  6520   0.234E+01    0.151E+00
DAV:   2    -0.203451621523E+02   -0.44573E-01   -0.48988E-01  6152   0.881E+00    0.215E+00
DAV:   3    -0.202944865805E+02    0.50676E-01   -0.16852E-01  6160   0.529E+00    0.508E-01
DAV:   4    -0.202909738523E+02    0.35127E-02   -0.88778E-03  5808   0.102E+00    0.428E-02
DAV:   5    -0.202910087117E+02   -0.34859E-04   -0.70236E-04  5484   0.291E-01    0.225E-02
DAV:   6    -0.202910092643E+02   -0.55265E-06   -0.20637E-05  6508   0.547E-02    0.132E-02
DAV:   7    -0.202910114575E+02   -0.21932E-05   -0.48872E-06  5748   0.305E-02    0.204E-03
DAV:   8    -0.202910112801E+02    0.17738E-06   -0.56678E-07  6344   0.127E-02    0.133E-03
DAV:   9    -0.202910113071E+02   -0.26952E-07   -0.52111E-08  4900   0.307E-03    0.149E-04
DAV:  10    -0.202910113136E+02   -0.65047E-08   -0.37157E-09  2724   0.756E-04
  23 F= -.20291011E+02 E0= -.20291268E+02  d E =-.146667E-02  mag=    -0.0000
 curvature:  -3.76 expect dE=-0.109E-01 dE for cont linesearch -0.179E-04
 ZBRENT: interpolating
 opt :  47.3607  next Energy=   -20.291035 (dE=-0.149E-02)
 bond charge predicted
       N       E                     dE             d eps       ncg     rms          rms(c)
DAV:   1    -0.202916632819E+02   -0.65197E-03   -0.55854E-02  6356   0.653E+00    0.408E-01
DAV:   2    -0.202947348913E+02   -0.30716E-02   -0.36578E-02  6164   0.242E+00    0.556E-01
DAV:   3    -0.202912952437E+02    0.34396E-02   -0.11808E-02  6160   0.142E+00    0.144E-01
DAV:   4    -0.202910006024E+02    0.29464E-03   -0.75074E-04  5976   0.306E-01    0.107E-02
DAV:   5    -0.202910037216E+02   -0.31192E-05   -0.60563E-05  5428   0.888E-02    0.596E-03
DAV:   6    -0.202910038694E+02   -0.14777E-06   -0.15996E-06  6688   0.140E-02    0.364E-03
DAV:   7    -0.202910041070E+02   -0.23766E-06   -0.38544E-07  5700   0.842E-03    0.529E-04
DAV:   8    -0.202910041003E+02    0.67375E-08   -0.36039E-08  4764   0.330E-03
  24 F= -.20291004E+02 E0= -.20291299E+02  d E =-.145946E-02  mag=     0.0000
 curvature:  -4.88 expect dE=-0.132E-01 dE for cont linesearch -0.420E-04
 ZBRENT: interpolating
 opt :  49.8407  next Energy=   -20.291020 (dE=-0.148E-02)
 bond charge predicted
       N       E                     dE             d eps       ncg     rms          rms(c)
DAV:   1    -0.202912480269E+02   -0.24392E-03   -0.18528E-02  6496   0.376E+00    0.233E-01
DAV:   2    -0.202922196235E+02   -0.97160E-03   -0.11729E-02  6160   0.137E+00    0.313E-01
DAV:   3    -0.202911174449E+02    0.11022E-02   -0.37453E-03  6136   0.803E-01    0.827E-02
DAV:   4    -0.202910188622E+02    0.98583E-04   -0.25494E-04  6096   0.176E-01    0.633E-03
DAV:   5    -0.202910195802E+02   -0.71802E-06   -0.20033E-05  5416   0.515E-02    0.342E-03
DAV:   6    -0.202910194920E+02    0.88180E-07   -0.52037E-07  6820   0.818E-03    0.204E-03
DAV:   7    -0.202910194343E+02    0.57742E-07   -0.12915E-07  5544   0.455E-03    0.285E-04
DAV:   8    -0.202910194255E+02    0.87884E-08   -0.87758E-09  2768   0.166E-03
  25 F= -.20291019E+02 E0= -.20291295E+02  d E =-.147479E-02  mag=     0.0000
 curvature:  -0.99 expect dE=-0.276E-02 dE for cont linesearch -0.356E-07
 trial: gam=******** g(F)=  0.246E-02 g(S)=  0.347E-03 ort =-0.802E-06 (trialstep = 0.326E-03)
 search vector abs. value=  0.610E+00
 reached required accuracy - stopping structural energy minimisation
 writing wavefunctions
