       N       E                     dE             d eps       ncg     rms          rms(c)
DAV:   1     0.370672791172E+03    0.37067E+03   -0.24490E+04 10616   0.137E+03
DAV:   2    -0.141695342582E+02   -0.38484E+03   -0.36689E+03  9048   0.415E+02
DAV:   3    -0.301309343193E+02   -0.15961E+02   -0.15314E+02 10680   0.975E+01
DAV:   4    -0.304976180314E+02   -0.36668E+00   -0.36626E+00  9784   0.147E+01
DAV:   5    -0.305087107666E+02   -0.11093E-01   -0.11092E-01 10816   0.277E+00    0.269E+01
DAV:   6    -0.505250148054E+02   -0.20016E+02   -0.19585E+02  9888   0.179E+02    0.373E+01
DAV:   7    -0.274703021030E+02    0.23055E+02   -0.52886E+01  9952   0.110E+02    0.100E+01
DAV:   8    -0.264645302352E+02    0.10058E+01   -0.59930E+00 11936   0.258E+01    0.164E+00
DAV:   9    -0.264476253883E+02    0.16905E-01   -0.27948E-01 10664   0.509E+00    0.132E+00
DAV:  10    -0.264432161758E+02    0.44092E-02   -0.21176E-02 12104   0.173E+00    0.541E-01
DAV:  11    -0.264408242151E+02    0.23920E-02   -0.23848E-02 12496   0.184E+00    0.350E-01
DAV:  12    -0.264398853135E+02    0.93890E-03   -0.22893E-03 11784   0.472E-01    0.197E-01
DAV:  13    -0.264394496125E+02    0.43570E-03   -0.96571E-04 13016   0.350E-01    0.426E-02
DAV:  14    -0.264394445022E+02    0.51103E-05   -0.12110E-04 12816   0.939E-02    0.145E-02
DAV:  15    -0.264394422375E+02    0.22647E-05   -0.70164E-06 11000   0.250E-02    0.516E-03
DAV:  16    -0.264394417841E+02    0.45337E-06   -0.82514E-07 12928   0.913E-03    0.134E-03
DAV:  17    -0.264394416571E+02    0.12702E-06   -0.75354E-08 10944   0.241E-03    0.647E-04
DAV:  18    -0.264394415805E+02    0.76573E-07   -0.52469E-09  5680   0.832E-04    0.442E-04
DAV:  19    -0.264394415729E+02    0.76607E-08   -0.29715E-09  5496   0.685E-04
   1 F= -.26439442E+02 E0= -.26439555E+02  d E =-.264394E+02  mag=    -0.0000
       N       E                     dE             d eps       ncg     rms          rms(c)
DAV:   1    -0.192526666159E+03   -0.16609E+03   -0.26457E+03  8720   0.743E+02    0.920E+01
DAV:   2    -0.515491533336E+02    0.14098E+03   -0.80312E+02 10048   0.232E+02    0.424E+01
DAV:   3    -0.604589291832E+02   -0.89098E+01   -0.31878E+02  8968   0.174E+02    0.443E+01
DAV:   4    -0.287700339253E+02    0.31689E+02   -0.91514E+01 10976   0.102E+02    0.532E+00
DAV:   5    -0.286213453766E+02    0.14869E+00   -0.58556E+00  9872   0.241E+01    0.116E+01
DAV:   6    -0.275960849065E+02    0.10253E+01   -0.60699E+00 12304   0.252E+01    0.652E+00
DAV:   7    -0.272530010663E+02    0.34308E+00   -0.65003E-01 11056   0.531E+00    0.277E+00
DAV:   8    -0.271815486869E+02    0.71452E-01   -0.31524E-01 10480   0.564E+00    0.322E-01
DAV:   9    -0.271817211952E+02   -0.17251E-03   -0.11507E-02  9584   0.937E-01    0.776E-02
DAV:  10    -0.271817549017E+02   -0.33706E-04   -0.46042E-04 11072   0.242E-01    0.550E-02
DAV:  11    -0.271817336807E+02    0.21221E-04   -0.15531E-04 11408   0.117E-01    0.214E-02
DAV:  12    -0.271817309127E+02    0.27681E-05   -0.65498E-06 10752   0.240E-02    0.980E-03
DAV:  13    -0.271817303242E+02    0.58851E-06   -0.35542E-06 12344   0.156E-02    0.206E-03
DAV:  14    -0.271817302939E+02    0.30245E-07   -0.20638E-07  9712   0.306E-03    0.170E-03
DAV:  15    -0.271817302218E+02    0.72094E-07   -0.29845E-08  6704   0.160E-03    0.594E-04
DAV:  16    -0.271817301964E+02    0.25388E-07   -0.15787E-08  6392   0.621E-04    0.505E-05
DAV:  17    -0.271817301916E+02    0.48522E-08   -0.16615E-09  4992   0.261E-04
   2 F= -.27181730E+02 E0= -.27181448E+02  d E =-.742289E+00  mag=    -0.0000
       N       E                     dE             d eps       ncg     rms          rms(c)
DAV:   1    -0.112245327895E+03   -0.85064E+02   -0.66905E+02  9904   0.277E+02    0.991E+01
DAV:   2    -0.226902054594E+03   -0.11466E+03   -0.17264E+03 10720   0.480E+02    0.757E+01
DAV:   3    -0.628302970677E+02    0.16407E+03   -0.55126E+02 10560   0.201E+02    0.347E+01
DAV:   4    -0.568647459465E+02    0.59656E+01   -0.20481E+01  9712   0.328E+01    0.316E+01
DAV:   5    -0.457959413281E+02    0.11069E+02   -0.41331E+00 10928   0.238E+01    0.259E+01
DAV:   6    -0.510538858273E+02   -0.52579E+01   -0.19444E+02 12400   0.144E+02    0.555E+01
DAV:   7    -0.291755679271E+02    0.21878E+02   -0.46340E+01 12000   0.537E+01    0.119E+01
DAV:   8    -0.283214071991E+02    0.85416E+00   -0.42288E+00 12048   0.167E+01    0.233E+00
DAV:   9    -0.282758998236E+02    0.45507E-01   -0.12527E-01 10024   0.250E+00    0.138E+00
DAV:  10    -0.283186843510E+02   -0.42785E-01   -0.22367E-01 10896   0.546E+00    0.230E+00
DAV:  11    -0.282535793999E+02    0.65105E-01   -0.16311E-01 10832   0.488E+00    0.521E-01
DAV:  12    -0.282634433042E+02   -0.98639E-02   -0.53982E-02 10360   0.286E+00    0.121E+00
DAV:  13    -0.282512405425E+02    0.12203E-01   -0.94196E-03 12816   0.114E+00    0.645E-01
DAV:  14    -0.282460508865E+02    0.51897E-02   -0.12045E-02 12520   0.108E+00    0.955E-02
DAV:  15    -0.282459201183E+02    0.13077E-03   -0.73592E-04 10664   0.191E-01    0.636E-02
DAV:  16    -0.282458323548E+02    0.87763E-04   -0.45518E-04 10200   0.228E-01    0.577E-02
DAV:  17    -0.282459034094E+02   -0.71055E-04   -0.65449E-04 12736   0.273E-01    0.104E-01
DAV:  18    -0.282458187988E+02    0.84611E-04   -0.10943E-04 11160   0.120E-01    0.447E-02
DAV:  19    -0.282457976717E+02    0.21127E-04   -0.59078E-05 12528   0.730E-02    0.229E-03
DAV:  20    -0.282457977700E+02   -0.98260E-07   -0.31385E-06  9848   0.120E-02    0.132E-03
DAV:  21    -0.282457976888E+02    0.81183E-07   -0.18126E-07 10272   0.363E-03    0.379E-04
DAV:  22    -0.282457977064E+02   -0.17646E-07   -0.52468E-08  8704   0.274E-03    0.103E-03
DAV:  23    -0.282457976630E+02    0.43444E-07   -0.31112E-08  6880   0.206E-03    0.107E-04
DAV:  24    -0.282457976648E+02   -0.17899E-08   -0.20913E-09  4960   0.296E-04
   3 F= -.28245798E+02 E0= -.28245609E+02  d E =-.180636E+01  mag=    -0.0000
       N       E                     dE             d eps       ncg     rms          rms(c)
DAV:   1    -0.282564373732E+02   -0.10640E-01   -0.76728E-02  9256   0.353E+00    0.115E+00
DAV:   2    -0.283089609370E+02   -0.52524E-01   -0.36018E-01 10248   0.722E+00    0.251E+00
DAV:   3    -0.282458601549E+02    0.63101E-01   -0.18166E-01 10056   0.537E+00    0.973E-02
DAV:   4    -0.282461463631E+02   -0.28621E-03   -0.48242E-03  9168   0.347E-01    0.113E-01
DAV:   5    -0.282460460775E+02    0.10029E-03   -0.30116E-04 11672   0.197E-01    0.123E-02
DAV:   6    -0.282460443900E+02    0.16875E-05   -0.95833E-06  9704   0.203E-02    0.182E-03
DAV:   7    -0.282460441917E+02    0.19837E-06   -0.39781E-07 10472   0.579E-03    0.486E-04
DAV:   8    -0.282460440675E+02    0.12411E-06   -0.40389E-08  9640   0.213E-03    0.684E-04
DAV:   9    -0.282460440068E+02    0.60693E-07   -0.88131E-09  5912   0.112E-03    0.637E-05
DAV:  10    -0.282460439959E+02    0.10913E-07   -0.18227E-09  5208   0.286E-04    0.270E-05
DAV:  11    -0.282460439969E+02   -0.10059E-08   -0.29194E-10  5016   0.146E-04
   4 F= -.28246044E+02 E0= -.28245845E+02  d E =-.180660E+01  mag=     0.0000
       N       E                     dE             d eps       ncg     rms          rms(c)
DAV:   1    -0.285905893669E+02   -0.34455E+00   -0.79979E+00 10216   0.273E+01    0.466E+00
DAV:   2    -0.286576733322E+02   -0.67084E-01   -0.22302E+00 10216   0.180E+01    0.566E+00
DAV:   3    -0.283535344153E+02    0.30414E+00   -0.11274E+00 10160   0.140E+01    0.192E+00
DAV:   4    -0.283016663974E+02    0.51868E-01   -0.11464E-01 10712   0.290E+00    0.316E-01
DAV:   5    -0.283012559648E+02    0.41043E-03   -0.11635E-02 10472   0.111E+00    0.136E-01
DAV:   6    -0.283011095897E+02    0.14638E-03   -0.97995E-04 10856   0.364E-01    0.369E-02
DAV:   7    -0.283011184317E+02   -0.88420E-05   -0.73779E-05 11272   0.928E-02    0.142E-02
DAV:   8    -0.283011171907E+02    0.12409E-05   -0.11942E-05 11000   0.406E-02    0.561E-03
DAV:   9    -0.283011166842E+02    0.50655E-06   -0.12275E-06 10760   0.134E-02    0.383E-04
DAV:  10    -0.283011166607E+02    0.23486E-07   -0.49687E-08  9928   0.157E-03    0.205E-04
DAV:  11    -0.283011166554E+02    0.53342E-08   -0.17581E-09  5696   0.386E-04
   5 F= -.28301117E+02 E0= -.28301335E+02  d E =-.550727E-01  mag=     0.0000
       N       E                     dE             d eps       ncg     rms          rms(c)
DAV:   1    -0.283693112373E+02   -0.68195E-01   -0.16425E+00 10168   0.125E+01    0.213E+00
DAV:   2    -0.283887905201E+02   -0.19479E-01   -0.49172E-01 10224   0.858E+00    0.272E+00
DAV:   3    -0.283195414887E+02    0.69249E-01   -0.25377E-01 10040   0.649E+00    0.879E-01
DAV:   4    -0.283086875304E+02    0.10854E-01   -0.24859E-02 10800   0.139E+00    0.131E-01
DAV:   5    -0.283086137595E+02    0.73771E-04   -0.21888E-03 10240   0.486E-01    0.503E-02
DAV:   6    -0.283085930276E+02    0.20732E-04   -0.14372E-04 11360   0.131E-01    0.145E-02
DAV:   7    -0.283085951087E+02   -0.20811E-05   -0.94953E-06 10992   0.282E-02    0.388E-03
DAV:   8    -0.283085950469E+02    0.61786E-07   -0.94939E-07 10608   0.108E-02    0.184E-03
DAV:   9    -0.283085949499E+02    0.97093E-07   -0.18318E-07 10360   0.535E-03    0.346E-04
DAV:  10    -0.283085949385E+02    0.11383E-07   -0.60808E-09  5768   0.834E-04    0.833E-05
DAV:  11    -0.283085949353E+02    0.31705E-08   -0.13125E-09  5232   0.281E-04
   6 F= -.28308595E+02 E0= -.28308637E+02  d E =-.625509E-01  mag=     0.0000
       N       E                     dE             d eps       ncg     rms          rms(c)
DAV:   1    -0.283110889082E+02   -0.24940E-02   -0.61964E-02 10208   0.243E+00    0.414E-01
DAV:   2    -0.283119617019E+02   -0.87279E-03   -0.19143E-02 10272   0.171E+00    0.554E-01
DAV:   3    -0.283092019885E+02    0.27597E-02   -0.10133E-02 10000   0.128E+00    0.173E-01
DAV:   4    -0.283087863542E+02    0.41563E-03   -0.95428E-04 10784   0.281E-01    0.237E-02
DAV:   5    -0.283087841854E+02    0.21687E-05   -0.77047E-05 10216   0.906E-02    0.837E-03
DAV:   6    -0.283087835618E+02    0.62363E-06   -0.42248E-06 11328   0.211E-02    0.266E-03
DAV:   7    -0.283087836186E+02   -0.56806E-07   -0.28231E-07 10600   0.421E-03    0.679E-04
DAV:   8    -0.283087835966E+02    0.21970E-07   -0.11717E-08  6456   0.944E-04    0.188E-04
DAV:   9    -0.283087835876E+02    0.90813E-08   -0.48232E-09  5192   0.846E-04
   7 F= -.28308784E+02 E0= -.28308801E+02  d E =-.627396E-01  mag=    -0.0000
       N       E                     dE             d eps       ncg     rms          rms(c)
DAV:   1    -0.283370980780E+02   -0.28314E-01   -0.41057E-01 10352   0.125E+01    0.182E+00
DAV:   2    -0.284499637988E+02   -0.11287E+00   -0.83272E-01 10224   0.112E+01    0.383E+00
DAV:   3    -0.283131691292E+02    0.13679E+00   -0.43505E-01 10032   0.809E+00    0.385E-01
DAV:   4    -0.283120924731E+02    0.10767E-02   -0.11739E-02  9344   0.906E-01    0.542E-02
DAV:   5    -0.283120954396E+02   -0.29665E-05   -0.37002E-04 10736   0.197E-01    0.241E-02
DAV:   6    -0.283120908580E+02    0.45816E-05   -0.25096E-05 10328   0.559E-02    0.111E-02
DAV:   7    -0.283120906654E+02    0.19264E-06   -0.36351E-06 11320   0.198E-02    0.226E-03
DAV:   8    -0.283120909798E+02   -0.31445E-06   -0.22014E-07  9936   0.426E-03    0.358E-04
DAV:   9    -0.283120910163E+02   -0.36458E-07   -0.20075E-08  7528   0.176E-03    0.305E-04
DAV:  10    -0.283120910291E+02   -0.12843E-07   -0.31630E-09  5224   0.689E-04    0.499E-05
DAV:  11    -0.283120910323E+02   -0.31905E-08   -0.73492E-10  4880   0.202E-04
   8 F= -.28312091E+02 E0= -.28312140E+02  d E =-.330744E-02  mag=     0.0000
       N       E                     dE             d eps       ncg     rms          rms(c)
DAV:   1    -0.283186298332E+02   -0.65388E-02   -0.99859E-02 10368   0.615E+00    0.907E-01
DAV:   2    -0.283473120237E+02   -0.28682E-01   -0.20785E-01 10192   0.561E+00    0.191E+00
DAV:   3    -0.283127360870E+02    0.34576E-01   -0.10804E-01 10008   0.408E+00    0.182E-01
DAV:   4    -0.283125041978E+02    0.23189E-03   -0.28855E-03  9288   0.422E-01    0.362E-02
DAV:   5    -0.283125011616E+02    0.30363E-05   -0.10532E-04 10672   0.112E-01    0.112E-02
DAV:   6    -0.283125004573E+02    0.70426E-06   -0.67658E-06  9712   0.290E-02    0.567E-03
DAV:   7    -0.283125004734E+02   -0.16059E-07   -0.84873E-07 11248   0.985E-03    0.110E-03
DAV:   8    -0.283125006281E+02   -0.15469E-06   -0.53287E-08  9560   0.197E-03    0.179E-04
DAV:   9    -0.283125006484E+02   -0.20350E-07   -0.52240E-09  5720   0.944E-04    0.182E-04
DAV:  10    -0.283125006552E+02   -0.68130E-08   -0.12566E-09  5000   0.445E-04
   9 F= -.28312501E+02 E0= -.28312576E+02  d E =-.371707E-02  mag=     0.0000
       N       E                     dE             d eps       ncg     rms          rms(c)
DAV:   1    -0.283538954619E+02   -0.41395E-01   -0.39329E-01 10720   0.120E+01    0.233E+00
DAV:   2    -0.285499035699E+02   -0.19601E+00   -0.13846E+00 10096   0.145E+01    0.475E+00
DAV:   3    -0.283123577766E+02    0.23755E+00   -0.68616E-01 10000   0.108E+01    0.245E-01
DAV:   4    -0.283131605537E+02   -0.80278E-03   -0.20628E-02  9104   0.759E-01    0.222E-01
DAV:   5    -0.283127722532E+02    0.38830E-03   -0.13614E-03 11248   0.424E-01    0.257E-02
DAV:   6    -0.283127658780E+02    0.63752E-05   -0.49605E-05  9792   0.610E-02    0.764E-03
DAV:   7    -0.283127653581E+02    0.51994E-06   -0.26665E-06 12928   0.151E-02    0.259E-03
DAV:   8    -0.283127650016E+02    0.35651E-06   -0.23770E-07  9728   0.405E-03    0.143E-03
DAV:   9    -0.283127649190E+02    0.82601E-07   -0.55492E-08  9968   0.240E-03    0.123E-04
DAV:  10    -0.283127649046E+02    0.14363E-07   -0.40711E-09  5224   0.553E-04    0.321E-05
DAV:  11    -0.283127648992E+02    0.53651E-08   -0.52773E-10  5088   0.206E-04
  10 F= -.28312765E+02 E0= -.28312851E+02  d E =-.264244E-03  mag=     0.0000
       N       E                     dE             d eps       ncg     rms          rms(c)
DAV:   1    -0.283175172524E+02   -0.47523E-02   -0.45171E-02 10592   0.405E+00    0.774E-01
DAV:   2    -0.283398633866E+02   -0.22346E-01   -0.15612E-01 10160   0.483E+00    0.168E+00
DAV:   3    -0.283128508101E+02    0.27013E-01   -0.83072E-02  9984   0.357E+00    0.111E-01
DAV:   4    -0.283128726621E+02   -0.21852E-04   -0.18829E-03  9104   0.291E-01    0.405E-02
DAV:   5    -0.283128624700E+02    0.10192E-04   -0.55891E-05 11568   0.794E-02    0.789E-03
DAV:   6    -0.283128620014E+02    0.46862E-06   -0.45193E-06  9504   0.231E-02    0.472E-03
DAV:   7    -0.283128619644E+02    0.36992E-07   -0.10376E-06 10544   0.119E-02    0.136E-03
DAV:   8    -0.283128620845E+02   -0.12007E-06   -0.66193E-08  8832   0.306E-03    0.157E-04
DAV:   9    -0.283128621054E+02   -0.20860E-07   -0.24906E-09  5296   0.390E-04    0.951E-05
DAV:  10    -0.283128621119E+02   -0.65593E-08   -0.52696E-10  4912   0.242E-04
  11 F= -.28312862E+02 E0= -.28312947E+02  d E =-.361457E-03  mag=    -0.0000
       N       E                     dE             d eps       ncg     rms          rms(c)
DAV:   1    -0.283122074341E+02    0.65467E-03   -0.23217E-02 12608   0.543E+00    0.969E-02
DAV:   2    -0.283130778214E+02   -0.87039E-03   -0.90347E-03  9920   0.816E-01    0.130E-01
DAV:   3    -0.283129413371E+02    0.13648E-03   -0.69407E-04 10368   0.337E-01    0.451E-02
DAV:   4    -0.283129142302E+02    0.27107E-04   -0.45968E-05 11216   0.841E-02    0.139E-02
DAV:   5    -0.283129115603E+02    0.26699E-05   -0.91064E-06 11888   0.275E-02    0.245E-03
DAV:   6    -0.283129116041E+02   -0.43798E-07   -0.10978E-06  9888   0.126E-02    0.154E-03
DAV:   7    -0.283129116095E+02   -0.54270E-08   -0.69338E-08  9024   0.295E-03
  12 F= -.28312912E+02 E0= -.28313000E+02  d E =-.494976E-04  mag=    -0.0000
       N       E                     dE             d eps       ncg     rms          rms(c)
DAV:   1    -0.283113443406E+02    0.15673E-02   -0.53449E-02 12672   0.822E+00    0.146E-01
DAV:   2    -0.283133070872E+02   -0.19627E-02   -0.20371E-02  9904   0.122E+00    0.196E-01
DAV:   3    -0.283129954499E+02    0.31164E-03   -0.15670E-03 10368   0.505E-01    0.681E-02
DAV:   4    -0.283129331802E+02    0.62270E-04   -0.10577E-04 11184   0.127E-01    0.203E-02
DAV:   5    -0.283129273587E+02    0.58215E-05   -0.20355E-05 11904   0.405E-02    0.367E-03
DAV:   6    -0.283129274420E+02   -0.83275E-07   -0.24115E-06  9936   0.188E-02    0.235E-03
DAV:   7    -0.283129274436E+02   -0.15652E-08   -0.16246E-07 10768   0.447E-03    0.549E-04
DAV:   8    -0.283129274780E+02   -0.34475E-07   -0.11181E-08  5456   0.103E-03    0.870E-05
DAV:   9    -0.283129274802E+02   -0.21755E-08   -0.20970E-09  4864   0.530E-04
  13 F= -.28312927E+02 E0= -.28313019E+02  d E =-.653683E-04  mag=    -0.0000
       N       E                     dE             d eps       ncg     rms          rms(c)
DAV:   1    -0.283124107612E+02    0.51672E-03   -0.18796E-02 13008   0.493E+00    0.877E-02
DAV:   2    -0.283131609976E+02   -0.75024E-03   -0.72763E-03  9856   0.753E-01    0.148E-01
DAV:   3    -0.283129608137E+02    0.20018E-03   -0.78267E-04  9920   0.362E-01    0.326E-02
DAV:   4    -0.283129494875E+02    0.11326E-04   -0.30615E-05 10832   0.571E-02    0.136E-02
DAV:   5    -0.283129468628E+02    0.26246E-05   -0.62379E-06 13296   0.274E-02    0.229E-03
DAV:   6    -0.283129468544E+02    0.84328E-08   -0.91209E-07 10000   0.112E-02    0.146E-03
DAV:   7    -0.283129468446E+02    0.98171E-08   -0.57609E-08  8416   0.292E-03
  14 F= -.28312947E+02 E0= -.28313041E+02  d E =-.193643E-04  mag=    -0.0000
       N       E                     dE             d eps       ncg     rms          rms(c)
DAV:   1    -0.283128531986E+02    0.93656E-04   -0.33339E-03 13024   0.208E+00    0.369E-02
DAV:   2    -0.283129873010E+02   -0.13410E-03   -0.12966E-03  9856   0.318E-01    0.623E-02
DAV:   3    -0.283129517892E+02    0.35512E-04   -0.13892E-04  9936   0.153E-01    0.138E-02
DAV:   4    -0.283129497309E+02    0.20583E-05   -0.54488E-06 10864   0.243E-02    0.576E-03
DAV:   5    -0.283129492191E+02    0.51176E-06   -0.11152E-06 13392   0.116E-02    0.961E-04
DAV:   6    -0.283129492071E+02    0.12021E-07   -0.16216E-07  9808   0.471E-03    0.608E-04
DAV:   7    -0.283129492053E+02    0.17972E-08   -0.90637E-09  5168   0.121E-03
  15 F= -.28312949E+02 E0= -.28313044E+02  d E =-.217251E-04  mag=    -0.0000
       N       E                     dE             d eps       ncg     rms          rms(c)
DAV:   1    -0.283131211015E+02   -0.17189E-03   -0.31426E-03 10272   0.151E+00    0.170E-01
DAV:   2    -0.283142005507E+02   -0.10794E-02   -0.76220E-03 10144   0.107E+00    0.359E-01
DAV:   3    -0.283129511138E+02    0.12494E-02   -0.39009E-03 10000   0.785E-01    0.300E-02
DAV:   4    -0.283129491408E+02    0.19730E-05   -0.93730E-05  9088   0.742E-02    0.912E-03
DAV:   5    -0.283129487686E+02    0.37228E-06   -0.35296E-06 11536   0.180E-02    0.189E-03
DAV:   6    -0.283129488529E+02   -0.84377E-07   -0.56244E-07  9824   0.889E-03    0.233E-03
DAV:   7    -0.283129488371E+02    0.15831E-07   -0.14892E-07  9856   0.475E-03    0.221E-04
DAV:   8    -0.283129488742E+02   -0.37149E-07   -0.51689E-09  5040   0.547E-04    0.701E-05
DAV:   9    -0.283129488775E+02   -0.32524E-08   -0.46392E-10  4608   0.184E-04
  16 F= -.28312949E+02 E0= -.28313044E+02  d E =0.327803E-06  mag=    -0.0000
       N       E                     dE             d eps       ncg     rms          rms(c)
DAV:   1    -0.283130054382E+02   -0.56564E-04   -0.10157E-03 10288   0.860E-01    0.967E-02
DAV:   2    -0.283133601604E+02   -0.35472E-03   -0.24744E-03 10144   0.608E-01    0.204E-01
DAV:   3    -0.283129517020E+02    0.40846E-03   -0.12599E-03 10000   0.448E-01    0.167E-02
DAV:   4    -0.283129507534E+02    0.94858E-06   -0.30460E-05  9088   0.412E-02    0.544E-03
DAV:   5    -0.283129504925E+02    0.26093E-06   -0.12178E-06 11408   0.109E-02    0.109E-03
DAV:   6    -0.283129504364E+02    0.56098E-07   -0.19346E-07  9792   0.525E-03    0.136E-03
DAV:   7    -0.283129504084E+02    0.28015E-07   -0.50905E-08  7600   0.280E-03    0.130E-04
DAV:   8    -0.283129503874E+02    0.21029E-07   -0.20116E-09  4768   0.372E-04    0.379E-05
DAV:   9    -0.283129503868E+02    0.52296E-09   -0.19765E-10  4560   0.130E-04
  17 F= -.28312950E+02 E0= -.28313045E+02  d E =-.118153E-05  mag=     0.0000
