 running on   24 total cores
 distrk:  each k-point on   24 cores,    1 groups
 distr:  one band on    6 cores,    4 groups
 using from now: INCAR     
 vasp.5.4.4.18Apr17-6-g9f103f2a35 (build Jan 03 2018 06:08:52) complex          
  
 POSCAR found :  2 types and       5 ions
 scaLAPACK will be used
 WARNING: for PREC=h ENMAX is automatically increase by 25 %
        this was not the case for versions prior to vasp.4.4
 WARNING: for PREC=h ENMAX is automatically increase by 25 %
        this was not the case for versions prior to vasp.4.4
 LDA part: xc-table for Pade appr. of Perdew
 POSCAR, INCAR and KPOINTS ok, starting setup
 FFT: planning ...
 WAVECAR not read
 entering main loop
       N       E                     dE             d eps       ncg     rms          rms(c)
DAV:   1     0.620004246005E+03    0.62000E+03   -0.32014E+04 12280   0.174E+03
DAV:   2     0.424172461084E+01   -0.61576E+03   -0.59382E+03 10568   0.553E+02
DAV:   3    -0.296884331533E+02   -0.33930E+02   -0.32591E+02 11516   0.150E+02
DAV:   4    -0.305158889143E+02   -0.82746E+00   -0.82266E+00 11620   0.227E+01
DAV:   5    -0.305370526032E+02   -0.21164E-01   -0.21161E-01 11836   0.386E+00    0.224E+01
DAV:   6    -0.381518259538E+02   -0.76148E+01   -0.89206E+01 11956   0.123E+02    0.304E+01
DAV:   7    -0.262764825286E+02    0.11875E+02   -0.32421E+01 11764   0.758E+01    0.380E+00
DAV:   8    -0.263447414544E+02   -0.68259E-01   -0.18592E+00 12772   0.123E+01    0.286E+00
DAV:   9    -0.263596524819E+02   -0.14911E-01   -0.54810E-01 13400   0.127E+01    0.339E+00
DAV:  10    -0.262807229323E+02    0.78930E-01   -0.30818E-01 13088   0.748E+00    0.378E-01
DAV:  11    -0.262821199662E+02   -0.13970E-02   -0.17724E-02 11368   0.107E+00    0.284E-01
DAV:  12    -0.262815361525E+02    0.58381E-03   -0.46613E-03 12144   0.742E-01    0.122E-01
DAV:  13    -0.262814616007E+02    0.74552E-04   -0.28378E-04 12600   0.164E-01    0.392E-02
DAV:  14    -0.262814544143E+02    0.71864E-05   -0.65718E-05 13080   0.797E-02    0.127E-02
DAV:  15    -0.262814534699E+02    0.94432E-06   -0.34227E-06 11476   0.185E-02    0.537E-03
DAV:  16    -0.262814528699E+02    0.60003E-06   -0.91453E-07 13360   0.893E-03    0.120E-03
DAV:  17    -0.262814527256E+02    0.14429E-06   -0.88815E-08  9972   0.281E-03    0.565E-04
DAV:  18    -0.262814526757E+02    0.49929E-07   -0.59869E-09  5928   0.928E-04    0.180E-04
DAV:  19    -0.262814526532E+02    0.22510E-07   -0.19915E-09  5644   0.478E-04    0.113E-04
DAV:  20    -0.262814526540E+02   -0.85129E-09   -0.50835E-10  5612   0.279E-04
   1 F= -.26281453E+02 E0= -.26281021E+02  d E =-.262815E+02  mag=    -0.0000
 curvature:   0.00 expect dE= 0.000E+00 dE for cont linesearch  0.000E+00
 trial: gam= 0.00000 g(F)=  0.395E+00 g(S)=  0.161E+01 ort = 0.000E+00 (trialstep = 0.100E+01)
 search vector abs. value=  0.201E+01
 bond charge predicted
       N       E                     dE             d eps       ncg     rms          rms(c)
DAV:   1    -0.104516789306E+03   -0.78235E+02   -0.91074E+02 10764   0.425E+02    0.705E+01
DAV:   2    -0.657787656839E+02    0.38738E+02   -0.57799E+02 12168   0.241E+02    0.526E+01
DAV:   3    -0.351552387033E+02    0.30624E+02   -0.20259E+02 12024   0.162E+02    0.279E+01
DAV:   4    -0.276257461007E+02    0.75295E+01   -0.35380E+01 12240   0.743E+01    0.898E+00
DAV:   5    -0.273687248449E+02    0.25702E+00   -0.47249E+00 13168   0.246E+01    0.616E+00
DAV:   6    -0.270069551730E+02    0.36177E+00   -0.38662E+00 11152   0.235E+01    0.523E+00
DAV:   7    -0.267378742884E+02    0.26908E+00   -0.95305E-01 11996   0.115E+01    0.873E-01
DAV:   8    -0.267294359576E+02    0.84383E-02   -0.30469E-02 11228   0.193E+00    0.214E-01
DAV:   9    -0.267288595468E+02    0.57641E-03   -0.27362E-03 12700   0.590E-01    0.879E-02
DAV:  10    -0.267288653915E+02   -0.58448E-05   -0.24934E-04 11692   0.231E-01    0.496E-02
DAV:  11    -0.267288515758E+02    0.13816E-04   -0.59359E-05 12148   0.851E-02    0.124E-02
DAV:  12    -0.267288526017E+02   -0.10259E-05   -0.65379E-06 12876   0.237E-02    0.200E-03
DAV:  13    -0.267288531016E+02   -0.49996E-06   -0.28600E-07 11476   0.557E-03    0.120E-03
DAV:  14    -0.267288531835E+02   -0.81869E-07   -0.18997E-08  7396   0.171E-03    0.533E-04
DAV:  15    -0.267288532005E+02   -0.16991E-07   -0.62683E-09  5868   0.827E-04    0.177E-04
DAV:  16    -0.267288532012E+02   -0.72941E-09   -0.27596E-09  5624   0.483E-04
   2 F= -.26728853E+02 E0= -.26728482E+02  d E =-.447401E+00  mag=    -0.0000
 trial-energy change:   -0.447401  1 .order   -0.565831   -2.005318    0.873656
 step:   0.6396(harm=  0.6965)  dis= 0.05144  next Energy=   -26.891807 (dE=-0.610E+00)
 bond charge predicted
       N       E                     dE             d eps       ncg     rms          rms(c)
DAV:   1    -0.410194963062E+02   -0.14291E+02   -0.13419E+02 11164   0.130E+02    0.392E+01
DAV:   2    -0.588190601458E+02   -0.17800E+02   -0.24876E+02 11208   0.204E+02    0.414E+01
DAV:   3    -0.276148469996E+02    0.31204E+02   -0.81040E+01 11536   0.113E+02    0.644E+00
DAV:   4    -0.273485498128E+02    0.26630E+00   -0.19802E+00 11064   0.111E+01    0.435E+00
DAV:   5    -0.271629114979E+02    0.18564E+00   -0.10967E+00 12664   0.159E+01    0.605E+00
DAV:   6    -0.269147895366E+02    0.24812E+00   -0.13881E+00 12888   0.152E+01    0.182E+00
DAV:   7    -0.268912249199E+02    0.23565E-01   -0.17332E-01 12340   0.400E+00    0.997E-01
DAV:   8    -0.268788398883E+02    0.12385E-01   -0.59760E-02 14072   0.259E+00    0.346E-01
DAV:   9    -0.268782548527E+02    0.58504E-03   -0.65356E-03 12088   0.942E-01    0.615E-02
DAV:  10    -0.268782303291E+02    0.24524E-04   -0.43370E-04 12356   0.207E-01    0.441E-02
DAV:  11    -0.268782151054E+02    0.15224E-04   -0.71286E-05 13396   0.102E-01    0.843E-03
DAV:  12    -0.268782151278E+02   -0.22346E-07   -0.10714E-05 12000   0.403E-02    0.428E-03
DAV:  13    -0.268782148335E+02    0.29430E-06   -0.71225E-07 11964   0.910E-03    0.202E-03
DAV:  14    -0.268782147247E+02    0.10879E-06   -0.18486E-07 12608   0.407E-03    0.550E-04
DAV:  15    -0.268782147339E+02   -0.92350E-08   -0.12786E-08  7140   0.103E-03
   3 F= -.26878215E+02 E0= -.26877674E+02  d E =-.596762E+00  mag=     0.0000
 curvature:  -0.34 expect dE=-0.552E-01 dE for cont linesearch -0.134E-04
 trial: gam= 0.08645 g(F)=  0.597E-01 g(S)=  0.105E+00 ort =-0.896E-02 (trialstep = 0.928E+00)
 search vector abs. value=  0.178E+00
 bond charge predicted
       N       E                     dE             d eps       ncg     rms          rms(c)
DAV:   1    -0.289400063556E+02   -0.20618E+01   -0.26141E+01 11288   0.660E+01    0.151E+01
DAV:   2    -0.320552665222E+02   -0.31153E+01   -0.42523E+01 11704   0.768E+01    0.191E+01
DAV:   3    -0.270248943148E+02    0.50304E+01   -0.13136E+01 11784   0.540E+01    0.273E+00
DAV:   4    -0.272539603152E+02   -0.22907E+00   -0.25134E+00 12632   0.224E+01    0.634E+00
DAV:   5    -0.270013584914E+02    0.25260E+00   -0.90653E-01 12776   0.167E+01    0.187E+00
DAV:   6    -0.269792409473E+02    0.22118E-01   -0.17144E-01 11416   0.493E+00    0.485E-01
DAV:   7    -0.269779856946E+02    0.12553E-02   -0.12850E-02 11592   0.144E+00    0.120E-01
DAV:   8    -0.269779264396E+02    0.59255E-04   -0.11877E-03 11736   0.388E-01    0.522E-02
DAV:   9    -0.269779379377E+02   -0.11498E-04   -0.10496E-04 14144   0.147E-01    0.308E-02
DAV:  10    -0.269779289653E+02    0.89724E-05   -0.38299E-05 12768   0.815E-02    0.532E-03
DAV:  11    -0.269779284828E+02    0.48250E-06   -0.24150E-06 11432   0.181E-02    0.721E-04
DAV:  12    -0.269779284620E+02    0.20718E-07   -0.89227E-08 11804   0.304E-03    0.264E-04
DAV:  13    -0.269779284595E+02    0.25848E-08   -0.41862E-09  6036   0.742E-04
   4 F= -.26977928E+02 E0= -.26977438E+02  d E =-.997137E-01  mag=    -0.0000
 trial-energy change:   -0.099714  1 .order   -0.097546   -0.151836   -0.043255
 step:   1.2463(harm=  1.2976)  dis= 0.04811  next Energy=   -26.985437 (dE=-0.107E+00)
 bond charge predicted
       N       E                     dE             d eps       ncg     rms          rms(c)
DAV:   1    -0.272208204251E+02   -0.24289E+00   -0.30902E+00 11264   0.232E+01    0.520E+00
DAV:   2    -0.276435576797E+02   -0.42274E+00   -0.50731E+00 11848   0.279E+01    0.747E+00
DAV:   3    -0.270473387469E+02    0.59622E+00   -0.18295E+00 11976   0.240E+01    0.341E+00
DAV:   4    -0.269990954013E+02    0.48243E-01   -0.64026E-01 12200   0.113E+01    0.132E+00
DAV:   5    -0.269878012955E+02    0.11294E-01   -0.66405E-02 12808   0.354E+00    0.531E-01
DAV:   6    -0.269856458959E+02    0.21554E-02   -0.10769E-02 11344   0.135E+00    0.104E-01
DAV:   7    -0.269856158876E+02    0.30008E-04   -0.77665E-04 11936   0.370E-01    0.328E-02
DAV:   8    -0.269856132727E+02    0.26149E-05   -0.81871E-05 11856   0.118E-01    0.117E-02
DAV:   9    -0.269856125650E+02    0.70771E-06   -0.52577E-06 13488   0.307E-02    0.324E-03
DAV:  10    -0.269856124054E+02    0.15960E-06   -0.57502E-07 13120   0.924E-03    0.114E-03
DAV:  11    -0.269856123629E+02    0.42492E-07   -0.57571E-08  9896   0.338E-03    0.215E-04
DAV:  12    -0.269856123556E+02    0.73469E-08   -0.34785E-09  5688   0.778E-04
   5 F= -.26985612E+02 E0= -.26985157E+02  d E =-.107398E+00  mag=    -0.0000
 curvature:  -0.69 expect dE=-0.197E-01 dE for cont linesearch -0.110E-04
 trial: gam= 0.22509 g(F)=  0.942E-02 g(S)=  0.191E-01 ort = 0.168E-02 (trialstep = 0.992E+00)
 search vector abs. value=  0.383E-01
 bond charge predicted
       N       E                     dE             d eps       ncg     rms          rms(c)
DAV:   1    -0.270704992208E+02   -0.84887E-01   -0.77960E+00 11608   0.856E+01    0.570E+00
DAV:   2    -0.276928916151E+02   -0.62239E+00   -0.79337E+00 11664   0.319E+01    0.826E+00
DAV:   3    -0.271810519923E+02    0.51184E+00   -0.41247E+00 11712   0.242E+01    0.503E+00
DAV:   4    -0.270306997335E+02    0.15035E+00   -0.73373E-01 11904   0.142E+01    0.150E+00
DAV:   5    -0.270071094564E+02    0.23590E-01   -0.68704E-02 11392   0.344E+00    0.272E-01
DAV:   6    -0.270066400737E+02    0.46938E-03   -0.66013E-03 11312   0.833E-01    0.875E-02
DAV:   7    -0.270066230705E+02    0.17003E-04   -0.81717E-04 11720   0.442E-01    0.761E-02
DAV:   8    -0.270065922549E+02    0.30816E-04   -0.15090E-04 12304   0.174E-01    0.109E-02
DAV:   9    -0.270065944786E+02   -0.22237E-05   -0.11764E-05 11320   0.335E-02    0.902E-03
DAV:  10    -0.270065938670E+02    0.61160E-06   -0.18766E-06 12000   0.153E-02    0.237E-03
DAV:  11    -0.270065938872E+02   -0.20213E-07   -0.20652E-07 14424   0.609E-03    0.434E-04
DAV:  12    -0.270065938950E+02   -0.78162E-08   -0.20932E-08  7484   0.208E-03
   6 F= -.27006594E+02 E0= -.27006141E+02  d E =-.209815E-01  mag=    -0.0000
 trial-energy change:   -0.020982  1 .order   -0.021162   -0.028680   -0.013645
 step:   2.0491(harm=  1.8916)  dis= 0.03213  next Energy=   -27.013651 (dE=-0.280E-01)
 bond charge predicted
       N       E                     dE             d eps       ncg     rms          rms(c)
DAV:   1    -0.270774921141E+02   -0.70898E-01   -0.87688E+00 11688   0.915E+01    0.600E+00
DAV:   2    -0.277785978316E+02   -0.70111E+00   -0.88730E+00 11704   0.339E+01    0.878E+00
DAV:   3    -0.272294911152E+02    0.54911E+00   -0.48533E+00 11776   0.257E+01    0.559E+00
DAV:   4    -0.270400992364E+02    0.18939E+00   -0.86866E-01 11816   0.155E+01    0.157E+00
DAV:   5    -0.270144615294E+02    0.25638E-01   -0.79829E-02 11416   0.359E+00    0.281E-01
DAV:   6    -0.270139767354E+02    0.48479E-03   -0.71583E-03 11320   0.849E-01    0.927E-02
DAV:   7    -0.270139590693E+02    0.17666E-04   -0.89161E-04 11664   0.453E-01    0.814E-02
DAV:   8    -0.270139237813E+02    0.35288E-04   -0.16822E-04 12376   0.183E-01    0.115E-02
DAV:   9    -0.270139263486E+02   -0.25673E-05   -0.13595E-05 11472   0.358E-02    0.101E-02
DAV:  10    -0.270139255727E+02    0.77583E-06   -0.22860E-06 11616   0.171E-02    0.266E-03
DAV:  11    -0.270139255893E+02   -0.16556E-07   -0.27173E-07 14520   0.677E-03    0.537E-04
DAV:  12    -0.270139255971E+02   -0.78016E-08   -0.27705E-08  8504   0.238E-03
   7 F= -.27013926E+02 E0= -.27013460E+02  d E =-.283132E-01  mag=    -0.0000
 curvature:  -1.21 expect dE=-0.275E-01 dE for cont linesearch -0.368E-05
 trial: gam= 0.82640 g(F)=  0.213E-02 g(S)=  0.205E-01 ort = 0.341E-03 (trialstep = 0.934E+00)
 search vector abs. value=  0.494E-01
 bond charge predicted
       N       E                     dE             d eps       ncg     rms          rms(c)
DAV:   1    -0.270582568645E+02   -0.44331E-01   -0.10915E+01 11528   0.105E+02    0.641E+00
DAV:   2    -0.277375188445E+02   -0.67926E+00   -0.85762E+00 11472   0.345E+01    0.745E+00
DAV:   3    -0.270777553727E+02    0.65976E+00   -0.24586E+00 11600   0.203E+01    0.241E+00
DAV:   4    -0.270942408166E+02   -0.16485E-01   -0.52385E-01 13648   0.107E+01    0.304E+00
DAV:   5    -0.270278657220E+02    0.66375E-01   -0.22201E-01 13408   0.704E+00    0.258E-01
DAV:   6    -0.270277065770E+02    0.15914E-03   -0.14060E-02 11832   0.108E+00    0.971E-02
DAV:   7    -0.270275956791E+02    0.11090E-03   -0.78761E-04 11672   0.312E-01    0.644E-02
DAV:   8    -0.270275832745E+02    0.12405E-04   -0.88885E-05 13072   0.895E-02    0.155E-02
DAV:   9    -0.270275832514E+02    0.23114E-07   -0.79164E-06 12456   0.350E-02    0.334E-03
DAV:  10    -0.270275828754E+02    0.37605E-06   -0.86954E-07 11568   0.130E-02    0.146E-03
DAV:  11    -0.270275827724E+02    0.10292E-06   -0.93967E-08 11168   0.485E-03    0.321E-04
DAV:  12    -0.270275827648E+02    0.76016E-08   -0.71660E-09  5848   0.125E-03
   8 F= -.27027583E+02 E0= -.27027073E+02  d E =-.136572E-01  mag=    -0.0000
 trial-energy change:   -0.013657  1 .order   -0.013474   -0.021401   -0.005547
 step:   1.2329(harm=  1.2604)  dis= 0.02039  next Energy=   -27.028478 (dE=-0.146E-01)
 bond charge predicted
       N       E                     dE             d eps       ncg     rms          rms(c)
DAV:   1    -0.270320722615E+02   -0.44895E-02   -0.11385E+00 11768   0.334E+01    0.207E+00
DAV:   2    -0.271036368533E+02   -0.71565E-01   -0.92568E-01 11416   0.114E+01    0.247E+00
DAV:   3    -0.270372066800E+02    0.66430E-01   -0.28096E-01 11576   0.719E+00    0.114E+00
DAV:   4    -0.270335701976E+02    0.36365E-02   -0.64255E-02 12408   0.421E+00    0.759E-01
DAV:   5    -0.270286067057E+02    0.49635E-02   -0.15526E-02 14064   0.192E+00    0.785E-02
DAV:   6    -0.270285728162E+02    0.33890E-04   -0.10937E-03 11240   0.334E-01    0.308E-02
DAV:   7    -0.270285616634E+02    0.11153E-04   -0.74628E-05 11760   0.102E-01    0.218E-02
DAV:   8    -0.270285595560E+02    0.21074E-05   -0.11848E-05 13000   0.387E-02    0.511E-03
DAV:   9    -0.270285592356E+02    0.32045E-06   -0.99518E-07 12168   0.133E-02    0.782E-04
DAV:  10    -0.270285591707E+02    0.64840E-07   -0.73456E-08 11296   0.309E-03    0.239E-04
DAV:  11    -0.270285591473E+02    0.23412E-07   -0.40944E-09  5888   0.892E-04    0.843E-05
DAV:  12    -0.270285591431E+02    0.42619E-08   -0.12541E-09  5488   0.403E-04
   9 F= -.27028559E+02 E0= -.27028022E+02  d E =-.146335E-01  mag=    -0.0000
 curvature:  -1.35 expect dE=-0.718E-02 dE for cont linesearch -0.720E-05
 trial: gam= 0.26537 g(F)=  0.258E-02 g(S)=  0.274E-02 ort = 0.514E-03 (trialstep = 0.994E+00)
 search vector abs. value=  0.908E-02
 bond charge predicted
       N       E                     dE             d eps       ncg     rms          rms(c)
DAV:   1    -0.270151345323E+02    0.13425E-01   -0.20144E+00 12704   0.436E+01    0.224E+00
DAV:   2    -0.271571029136E+02   -0.14197E+00   -0.14570E+00 11928   0.156E+01    0.417E+00
DAV:   3    -0.270846008362E+02    0.72502E-01   -0.10039E+00 12048   0.135E+01    0.277E+00
DAV:   4    -0.270395503808E+02    0.45050E-01   -0.20694E-01 13464   0.671E+00    0.753E-01
DAV:   5    -0.270323176734E+02    0.72327E-02   -0.20813E-02 12280   0.187E+00    0.140E-01
DAV:   6    -0.270322741336E+02    0.43540E-04   -0.22258E-03 11120   0.638E-01    0.446E-02
DAV:   7    -0.270322680021E+02    0.61316E-05   -0.14425E-04 12888   0.153E-01    0.186E-02
DAV:   8    -0.270322721940E+02   -0.41920E-05   -0.20517E-05 11504   0.500E-02    0.862E-03
DAV:   9    -0.270322721689E+02    0.25175E-07   -0.20425E-06 11896   0.220E-02    0.143E-03
DAV:  10    -0.270322721795E+02   -0.10672E-07   -0.14744E-07 11176   0.365E-03    0.546E-04
DAV:  11    -0.270322721855E+02   -0.59390E-08   -0.85074E-09  5984   0.156E-03
  10 F= -.27032272E+02 E0= -.27031656E+02  d E =-.371304E-02  mag=     0.0000
 trial-energy change:   -0.003713  1 .order   -0.003744   -0.005428   -0.002061
 step:   1.6639(harm=  1.6016)  dis= 0.01132  next Energy=   -27.032958 (dE=-0.440E-02)
 bond charge predicted
       N       E                     dE             d eps       ncg     rms          rms(c)
DAV:   1    -0.270250067035E+02    0.72655E-02   -0.91158E-01 12816   0.294E+01    0.151E+00
DAV:   2    -0.270915171820E+02   -0.66510E-01   -0.67389E-01 11896   0.107E+01    0.287E+00
DAV:   3    -0.270566556172E+02    0.34862E-01   -0.44654E-01 12096   0.942E+00    0.190E+00
DAV:   4    -0.270362076712E+02    0.20448E-01   -0.96233E-02 13304   0.462E+00    0.505E-01
DAV:   5    -0.270329725822E+02    0.32351E-02   -0.94965E-03 12440   0.129E+00    0.101E-01
DAV:   6    -0.270329478585E+02    0.24724E-04   -0.10203E-03 11064   0.437E-01    0.308E-02
DAV:   7    -0.270329456458E+02    0.22128E-05   -0.69287E-05 12904   0.106E-01    0.120E-02
DAV:   8    -0.270329478433E+02   -0.21976E-05   -0.90368E-06 11464   0.317E-02    0.570E-03
DAV:   9    -0.270329478866E+02   -0.43272E-07   -0.89919E-07 12288   0.147E-02    0.931E-04
DAV:  10    -0.270329479022E+02   -0.15612E-07   -0.63378E-08 10584   0.256E-03    0.452E-04
DAV:  11    -0.270329479054E+02   -0.31760E-08   -0.60509E-09  5752   0.132E-03
  11 F= -.27032948E+02 E0= -.27032306E+02  d E =-.438876E-02  mag=    -0.0000
 curvature:  -1.32 expect dE=-0.354E-02 dE for cont linesearch -0.793E-06
 trial: gam= 0.58388 g(F)=  0.784E-03 g(S)=  0.190E-02 ort =-0.740E-04 (trialstep = 0.113E+01)
 search vector abs. value=  0.570E-02
 bond charge predicted
       N       E                     dE             d eps       ncg     rms          rms(c)
DAV:   1    -0.270635593951E+02   -0.30611E-01   -0.14041E+00 11600   0.322E+01    0.257E+00
DAV:   2    -0.271561753973E+02   -0.92616E-01   -0.12342E+00 11656   0.134E+01    0.317E+00
DAV:   3    -0.270470786679E+02    0.10910E+00   -0.43314E-01 11600   0.866E+00    0.135E+00
DAV:   4    -0.270429538562E+02    0.41248E-02   -0.92231E-02 12544   0.506E+00    0.983E-01
DAV:   5    -0.270351071775E+02    0.78467E-02   -0.23506E-02 14224   0.234E+00    0.862E-02
DAV:   6    -0.270350817154E+02    0.25462E-04   -0.16271E-03 11064   0.383E-01    0.350E-02
DAV:   7    -0.270350736330E+02    0.80825E-05   -0.65368E-05 12160   0.100E-01    0.237E-02
DAV:   8    -0.270350723551E+02    0.12779E-05   -0.12961E-05 13976   0.400E-02    0.650E-03
DAV:   9    -0.270350719431E+02    0.41196E-06   -0.16453E-06 12208   0.192E-02    0.111E-03
DAV:  10    -0.270350718618E+02    0.81289E-07   -0.13603E-07 11192   0.474E-03    0.455E-04
DAV:  11    -0.270350718401E+02    0.21722E-07   -0.83936E-09  5816   0.153E-03    0.111E-04
DAV:  12    -0.270350718351E+02    0.49858E-08   -0.18471E-09  5544   0.488E-04
  12 F= -.27035072E+02 E0= -.27034471E+02  d E =-.212393E-02  mag=    -0.0000
 trial-energy change:   -0.002124  1 .order   -0.002147   -0.002982   -0.001312
 step:   2.1813(harm=  2.0132)  dis= 0.01230  next Energy=   -27.035666 (dE=-0.272E-02)
 bond charge predicted
       N       E                     dE             d eps       ncg     rms          rms(c)
DAV:   1    -0.270612606601E+02   -0.26189E-01   -0.12383E+00 11680   0.301E+01    0.242E+00
DAV:   2    -0.271434804628E+02   -0.82220E-01   -0.10829E+00 11592   0.126E+01    0.298E+00
DAV:   3    -0.270470720082E+02    0.96408E-01   -0.38508E-01 11608   0.823E+00    0.133E+00
DAV:   4    -0.270423847082E+02    0.46873E-02   -0.84018E-02 12400   0.486E+00    0.884E-01
DAV:   5    -0.270358716651E+02    0.65130E-02   -0.19194E-02 14312   0.212E+00    0.806E-02
DAV:   6    -0.270358472802E+02    0.24385E-04   -0.13539E-03 11064   0.352E-01    0.334E-02
DAV:   7    -0.270358400374E+02    0.72427E-05   -0.52883E-05 12152   0.912E-02    0.219E-02
DAV:   8    -0.270358389854E+02    0.10521E-05   -0.10807E-05 13992   0.361E-02    0.599E-03
DAV:   9    -0.270358385883E+02    0.39707E-06   -0.13714E-06 12224   0.174E-02    0.101E-03
DAV:  10    -0.270358385217E+02    0.66600E-07   -0.11639E-07 11144   0.432E-03    0.437E-04
DAV:  11    -0.270358385045E+02    0.17219E-07   -0.70200E-09  5864   0.141E-03    0.105E-04
DAV:  12    -0.270358384990E+02    0.54933E-08   -0.16247E-09  5520   0.468E-04
  13 F= -.27035838E+02 E0= -.27035251E+02  d E =-.289059E-02  mag=    -0.0000
 curvature:  -2.09 expect dE=-0.774E-02 dE for cont linesearch -0.744E-04
 trial: gam= 1.42530 g(F)=  0.587E-03 g(S)=  0.312E-02 ort = 0.450E-03 (trialstep = 0.460E+00)
 search vector abs. value=  0.166E-01
 bond charge predicted
       N       E                     dE             d eps       ncg     rms          rms(c)
DAV:   1    -0.270347617955E+02    0.10767E-02   -0.57412E-01 12072   0.194E+01    0.104E+00
DAV:   2    -0.270489388396E+02   -0.14177E-01   -0.24150E-01 11024   0.579E+00    0.117E+00
DAV:   3    -0.270473084685E+02    0.16304E-02   -0.91587E-02 12592   0.502E+00    0.115E+00
DAV:   4    -0.270410776882E+02    0.62308E-02   -0.44087E-02 12816   0.340E+00    0.542E-01
DAV:   5    -0.270379679005E+02    0.31098E-02   -0.90403E-03 13664   0.145E+00    0.672E-02
DAV:   6    -0.270379738070E+02   -0.59065E-05   -0.74166E-04 10984   0.354E-01    0.278E-02
DAV:   7    -0.270379715477E+02    0.22593E-05   -0.45646E-05 12928   0.101E-01    0.129E-02
DAV:   8    -0.270379720930E+02   -0.54527E-06   -0.68190E-06 12048   0.320E-02    0.410E-03
DAV:   9    -0.270379723319E+02   -0.23894E-06   -0.70736E-07 12072   0.103E-02    0.107E-03
DAV:  10    -0.270379723307E+02    0.12533E-08   -0.53058E-08  9992   0.262E-03
  14 F= -.27037972E+02 E0= -.27037553E+02  d E =-.213383E-02  mag=    -0.0000
 ZBRENT: can't locate minimum, use default step
 trial-energy change:   -0.002134  1 .order   -0.002099   -0.002001   -0.002198
 step:   1.8415(harm=  1.8415)  dis= 0.01390  next Energy=   -27.042675 (dE=-0.684E-02)
 bond charge predicted
       N       E                     dE             d eps       ncg     rms          rms(c)
DAV:   1    -0.270110255254E+02    0.26947E-01   -0.51619E+00 12016   0.581E+01    0.311E+00
DAV:   2    -0.271320058630E+02   -0.12098E+00   -0.21566E+00 11040   0.168E+01    0.326E+00
DAV:   3    -0.271223466243E+02    0.96592E-02   -0.84819E-01 13008   0.134E+01    0.315E+00
DAV:   4    -0.270684163144E+02    0.53930E-01   -0.32651E-01 12760   0.919E+00    0.154E+00
DAV:   5    -0.270420818733E+02    0.26334E-01   -0.79676E-02 13632   0.414E+00    0.290E-01
DAV:   6    -0.270419104296E+02    0.17144E-03   -0.76731E-03 11112   0.121E+00    0.837E-02
DAV:   7    -0.270418860663E+02    0.24363E-04   -0.50745E-04 11960   0.325E-01    0.390E-02
DAV:   8    -0.270418911624E+02   -0.50962E-05   -0.56045E-05 12160   0.865E-02    0.113E-02
DAV:   9    -0.270418930005E+02   -0.18381E-05   -0.66531E-06 12752   0.265E-02    0.461E-03
DAV:  10    -0.270418929129E+02    0.87617E-07   -0.82228E-07 11312   0.121E-02    0.858E-04
DAV:  11    -0.270418928942E+02    0.18643E-07   -0.82441E-08 11240   0.430E-03    0.381E-04
DAV:  12    -0.270418928997E+02   -0.54497E-08   -0.66674E-09  5736   0.127E-03
  15 F= -.27041893E+02 E0= -.27041732E+02  d E =-.605440E-02  mag=    -0.0000
 curvature:  -5.43 expect dE=-0.124E-01 dE for cont linesearch -0.298E-04
 trial: gam= 0.59747 g(F)=  0.127E-02 g(S)=  0.101E-02 ort = 0.301E-03 (trialstep = 0.737E+00)
 search vector abs. value=  0.855E-02
 bond charge predicted
       N       E                     dE             d eps       ncg     rms          rms(c)
DAV:   1    -0.270562609315E+02   -0.14368E-01   -0.80874E-01 13536   0.166E+01    0.136E+00
DAV:   2    -0.270562728067E+02   -0.11875E-04   -0.20312E-01 11104   0.548E+00    0.975E-01
DAV:   3    -0.270498960633E+02    0.63767E-02   -0.50768E-02 11992   0.363E+00    0.848E-01
DAV:   4    -0.270556710423E+02   -0.57750E-02   -0.87930E-02 12372   0.508E+00    0.143E+00
DAV:   5    -0.270432796063E+02    0.12391E-01   -0.50316E-02 12920   0.312E+00    0.714E-02
DAV:   6    -0.270432826424E+02   -0.30361E-05   -0.19820E-03 11104   0.392E-01    0.304E-02
DAV:   7    -0.270432794053E+02    0.32371E-05   -0.49577E-05 13656   0.807E-02    0.168E-02
DAV:   8    -0.270432814272E+02   -0.20219E-05   -0.81904E-06 12564   0.430E-02    0.418E-03
DAV:   9    -0.270432813187E+02    0.10852E-06   -0.13644E-06 13152   0.174E-02    0.172E-03
DAV:  10    -0.270432812569E+02    0.61818E-07   -0.98426E-08 11484   0.397E-03    0.229E-04
DAV:  11    -0.270432812536E+02    0.32451E-08   -0.57442E-09  5676   0.110E-03
  16 F= -.27043281E+02 E0= -.27043182E+02  d E =-.138835E-02  mag=    -0.0000
 trial-energy change:   -0.001388  1 .order   -0.001376   -0.001809   -0.000943
 step:   1.4256(harm=  1.5389)  dis= 0.00485  next Energy=   -27.043732 (dE=-0.184E-02)
 bond charge predicted
       N       E                     dE             d eps       ncg     rms          rms(c)
DAV:   1    -0.270555057385E+02   -0.12224E-01   -0.71264E-01 13544   0.156E+01    0.128E+00
DAV:   2    -0.270556158538E+02   -0.11012E-03   -0.18028E-01 11112   0.521E+00    0.938E-01
DAV:   3    -0.270500540873E+02    0.55618E-02   -0.48604E-02 12072   0.364E+00    0.847E-01
DAV:   4    -0.270538581352E+02   -0.38040E-02   -0.77129E-02 12360   0.473E+00    0.127E+00
DAV:   5    -0.270437912180E+02    0.10067E-01   -0.40163E-02 13024   0.288E+00    0.666E-02
DAV:   6    -0.270437926029E+02   -0.13848E-05   -0.17043E-03 11060   0.370E-01    0.280E-02
DAV:   7    -0.270437892261E+02    0.33767E-05   -0.42488E-05 13564   0.762E-02    0.152E-02
DAV:   8    -0.270437909001E+02   -0.16740E-05   -0.70015E-06 12416   0.383E-02    0.371E-03
DAV:   9    -0.270437908207E+02    0.79457E-07   -0.11445E-06 13332   0.160E-02    0.165E-03
DAV:  10    -0.270437907670E+02    0.53733E-07   -0.86564E-08 11376   0.386E-03    0.221E-04
DAV:  11    -0.270437907645E+02    0.24629E-08   -0.58464E-09  5660   0.115E-03
  17 F= -.27043791E+02 E0= -.27043707E+02  d E =-.189786E-02  mag=    -0.0000
 curvature:  -2.62 expect dE=-0.312E-02 dE for cont linesearch -0.579E-05
 trial: gam=-0.00356 g(F)=  0.760E-03 g(S)=  0.427E-03 ort = 0.137E-03 (trialstep = 0.874E+00)
 search vector abs. value=  0.119E-02
 bond charge predicted
       N       E                     dE             d eps       ncg     rms          rms(c)
DAV:   1    -0.270420213502E+02    0.17694E-02   -0.11960E-01 12288   0.108E+01    0.374E-01
DAV:   2    -0.270453812517E+02   -0.33599E-02   -0.50459E-02 10768   0.217E+00    0.266E-01
DAV:   3    -0.270463123992E+02   -0.93115E-03   -0.11251E-02 12888   0.195E+00    0.516E-01
DAV:   4    -0.270446157720E+02    0.16966E-02   -0.65877E-03 13208   0.133E+00    0.371E-02
DAV:   5    -0.270446144545E+02    0.13175E-05   -0.40551E-04 11528   0.179E-01    0.295E-02
DAV:   6    -0.270446052624E+02    0.91921E-05   -0.43243E-05 11168   0.812E-02    0.998E-03
DAV:   7    -0.270446041622E+02    0.11002E-05   -0.42556E-06 13224   0.229E-02    0.462E-03
DAV:   8    -0.270446042453E+02   -0.83124E-07   -0.72935E-07 12192   0.777E-03    0.182E-03
DAV:   9    -0.270446042767E+02   -0.31359E-07   -0.87256E-08 11816   0.370E-03    0.433E-04
DAV:  10    -0.270446042763E+02    0.40745E-09   -0.92968E-09  5732   0.141E-03
  18 F= -.27044604E+02 E0= -.27044516E+02  d E =-.813512E-03  mag=     0.0000
 trial-energy change:   -0.000814  1 .order   -0.000814   -0.001038   -0.000590
 step:   2.0263(harm=  2.0263)  dis= 0.00731  next Energy=   -27.044993 (dE=-0.120E-02)
 bond charge predicted
       N       E                     dE             d eps       ncg     rms          rms(c)
DAV:   1    -0.270405092504E+02    0.40950E-02   -0.20752E-01 12312   0.142E+01    0.493E-01
DAV:   2    -0.270463461954E+02   -0.58369E-02   -0.87608E-02 10784   0.286E+00    0.350E-01
DAV:   3    -0.270479429746E+02   -0.15968E-02   -0.19551E-02 12784   0.257E+00    0.677E-01
DAV:   4    -0.270450166122E+02    0.29264E-02   -0.11378E-02 13192   0.172E+00    0.513E-02
DAV:   5    -0.270450171139E+02   -0.50171E-06   -0.74454E-04 11600   0.247E-01    0.446E-02
DAV:   6    -0.270449959181E+02    0.21196E-04   -0.92245E-05 11104   0.119E-01    0.131E-02
DAV:   7    -0.270449940120E+02    0.19061E-05   -0.79497E-06 12912   0.309E-02    0.608E-03
DAV:   8    -0.270449941448E+02   -0.13282E-06   -0.12901E-06 12008   0.105E-02    0.244E-03
DAV:   9    -0.270449942004E+02   -0.55576E-07   -0.15981E-07 12928   0.513E-03    0.597E-04
DAV:  10    -0.270449941990E+02    0.13733E-08   -0.15789E-08  6560   0.187E-03
  19 F= -.27044994E+02 E0= -.27044897E+02  d E =-.120343E-02  mag=     0.0000
 curvature:  -1.01 expect dE=-0.305E-03 dE for cont linesearch -0.774E-09
 trial: gam= 0.25417 g(F)=  0.752E-04 g(S)=  0.226E-03 ort =-0.952E-06 (trialstep = 0.110E+01)
 search vector abs. value=  0.377E-03
 bond charge predicted
       N       E                     dE             d eps       ncg     rms          rms(c)
DAV:   1    -0.270480665125E+02   -0.30723E-02   -0.10256E-01 11584   0.935E+00    0.752E-01
DAV:   2    -0.270556411164E+02   -0.75746E-02   -0.10682E-01 11416   0.399E+00    0.916E-01
DAV:   3    -0.270456087577E+02    0.10032E-01   -0.35982E-02 11560   0.241E+00    0.234E-01
DAV:   4    -0.270456504032E+02   -0.41645E-04   -0.39336E-03 13944   0.107E+00    0.251E-01
DAV:   5    -0.270451942082E+02    0.45619E-03   -0.17255E-03 12832   0.700E-01    0.353E-02
DAV:   6    -0.270451877059E+02    0.65023E-05   -0.11656E-04 11184   0.111E-01    0.101E-02
DAV:   7    -0.270451872869E+02    0.41896E-06   -0.10786E-05 11888   0.425E-02    0.786E-03
DAV:   8    -0.270451871085E+02    0.17842E-06   -0.12313E-06 13168   0.125E-02    0.141E-03
DAV:   9    -0.270451872406E+02   -0.13210E-06   -0.14275E-07 12248   0.359E-03    0.747E-04
DAV:  10    -0.270451872678E+02   -0.27141E-07   -0.25758E-08  7744   0.197E-03    0.151E-04
DAV:  11    -0.270451872757E+02   -0.79417E-08   -0.20877E-09  5464   0.643E-04
  20 F= -.27045187E+02 E0= -.27045086E+02  d E =-.193077E-03  mag=    -0.0000
 trial-energy change:   -0.000193  1 .order   -0.000196   -0.000332   -0.000060
 step:   1.3658(harm=  1.3458)  dis= 0.00260  next Energy=   -27.045194 (dE=-0.200E-03)
 bond charge predicted
       N       E                     dE             d eps       ncg     rms          rms(c)
DAV:   1    -0.270453548039E+02   -0.16754E-03   -0.57148E-03 11592   0.221E+00    0.178E-01
DAV:   2    -0.270457734284E+02   -0.41862E-03   -0.59211E-03 11416   0.944E-01    0.216E-01
DAV:   3    -0.270452145105E+02    0.55892E-03   -0.19897E-03 11568   0.566E-01    0.528E-02
DAV:   4    -0.270452196215E+02   -0.51111E-05   -0.21746E-04 14200   0.254E-01    0.617E-02
DAV:   5    -0.270451934543E+02    0.26167E-04   -0.10332E-04 12768   0.173E-01    0.846E-03
DAV:   6    -0.270451933402E+02    0.11411E-06   -0.67735E-06 11184   0.266E-02    0.241E-03
DAV:   7    -0.270451933988E+02   -0.58595E-07   -0.60778E-07 11920   0.100E-02    0.185E-03
DAV:   8    -0.270451934307E+02   -0.31896E-07   -0.66447E-08 10256   0.288E-03    0.343E-04
DAV:   9    -0.270451934612E+02   -0.30563E-07   -0.78101E-09  5488   0.998E-04    0.181E-04
DAV:  10    -0.270451934681E+02   -0.68867E-08   -0.27246E-09  5376   0.691E-04
  21 F= -.27045193E+02 E0= -.27045091E+02  d E =-.199269E-03  mag=    -0.0000
 curvature:  -0.84 expect dE=-0.120E-03 dE for cont linesearch -0.224E-07
 trial: gam= 0.49196 g(F)=  0.186E-04 g(S)=  0.125E-03 ort =-0.318E-05 (trialstep = 0.116E+01)
 search vector abs. value=  0.232E-03
 bond charge predicted
       N       E                     dE             d eps       ncg     rms          rms(c)
DAV:   1    -0.270478273323E+02   -0.26339E-02   -0.84755E-02 11448   0.863E+00    0.715E-01
DAV:   2    -0.270562627553E+02   -0.84354E-02   -0.10519E-01 11760   0.404E+00    0.101E+00
DAV:   3    -0.270482785515E+02    0.79842E-02   -0.58462E-02 11856   0.386E+00    0.758E-01
DAV:   4    -0.270454584389E+02    0.28201E-02   -0.18646E-02 11600   0.224E+00    0.140E-01
DAV:   5    -0.270452578879E+02    0.20055E-03   -0.86249E-04 11632   0.315E-01    0.419E-02
DAV:   6    -0.270452423172E+02    0.15571E-04   -0.72508E-05 12920   0.889E-02    0.876E-03
DAV:   7    -0.270452415719E+02    0.74525E-06   -0.67607E-06 11176   0.318E-02    0.621E-03
DAV:   8    -0.270452411394E+02    0.43255E-06   -0.77208E-07 13000   0.113E-02    0.984E-04
DAV:   9    -0.270452410622E+02    0.77165E-07   -0.68244E-08 11032   0.330E-03    0.324E-04
DAV:  10    -0.270452410501E+02    0.12142E-07   -0.47192E-09  5664   0.783E-04    0.745E-05
DAV:  11    -0.270452410468E+02    0.33269E-08   -0.11713E-09  5488   0.416E-04
  22 F= -.27045241E+02 E0= -.27045134E+02  d E =-.475786E-04  mag=     0.0000
 trial-energy change:   -0.000048  1 .order   -0.000046   -0.000164    0.000072
 step:   0.8137(harm=  0.8054)  dis= 0.00104  next Energy=   -27.045252 (dE=-0.582E-04)
 bond charge predicted
       N       E                     dE             d eps       ncg     rms          rms(c)
DAV:   1    -0.270454812564E+02   -0.24021E-03   -0.74802E-03 11440   0.256E+00    0.212E-01
DAV:   2    -0.270462228650E+02   -0.74161E-03   -0.92929E-03 11752   0.120E+00    0.305E-01
DAV:   3    -0.270455465172E+02    0.67635E-03   -0.56674E-03 12000   0.122E+00    0.237E-01
DAV:   4    -0.270452685143E+02    0.27800E-03   -0.16767E-03 11616   0.705E-01    0.414E-02
DAV:   5    -0.270452520106E+02    0.16504E-04   -0.80260E-05 12136   0.937E-02    0.124E-02
DAV:   6    -0.270452512158E+02    0.79477E-06   -0.61946E-06 12864   0.258E-02    0.266E-03
DAV:   7    -0.270452513769E+02   -0.16111E-06   -0.57964E-07 11152   0.912E-03    0.184E-03
DAV:   8    -0.270452514818E+02   -0.10487E-06   -0.66167E-08 11592   0.326E-03    0.285E-04
DAV:   9    -0.270452515019E+02   -0.20122E-07   -0.51982E-09  5568   0.979E-04    0.849E-05
DAV:  10    -0.270452515065E+02   -0.45547E-08   -0.97201E-10  5416   0.299E-04
  23 F= -.27045252E+02 E0= -.27045145E+02  d E =-.580384E-04  mag=     0.0000
 curvature:  -0.66 expect dE=-0.859E-05 dE for cont linesearch -0.243E-08
 trial: gam= 0.08675 g(F)=  0.556E-05 g(S)=  0.752E-05 ort =-0.925E-06 (trialstep = 0.109E+01)
 search vector abs. value=  0.147E-04
 bond charge predicted
       N       E                     dE             d eps       ncg     rms          rms(c)
DAV:   1    -0.270450537127E+02    0.19779E-03   -0.62526E-03 14168   0.287E+00    0.564E-02
DAV:   2    -0.270452782171E+02   -0.22450E-03   -0.25679E-03 10528   0.450E-01    0.495E-02
DAV:   3    -0.270452905402E+02   -0.12323E-04   -0.26898E-04 12744   0.289E-01    0.625E-02
DAV:   4    -0.270452628054E+02    0.27735E-04   -0.10235E-04 13984   0.172E-01    0.101E-02
DAV:   5    -0.270452619759E+02    0.82955E-06   -0.10542E-05 12760   0.344E-02    0.749E-03
DAV:   6    -0.270452614945E+02    0.48136E-06   -0.25472E-06 11488   0.201E-02    0.194E-03
DAV:   7    -0.270452614873E+02    0.71759E-08   -0.13030E-07 11760   0.511E-03    0.904E-04
DAV:   8    -0.270452615008E+02   -0.13462E-07   -0.20461E-08  7360   0.155E-03    0.218E-04
DAV:   9    -0.270452615019E+02   -0.11478E-08   -0.43140E-09  5408   0.920E-04
  24 F= -.27045262E+02 E0= -.27045157E+02  d E =-.999547E-05  mag=    -0.0000
 trial-energy change:   -0.000010  1 .order   -0.000010   -0.000014   -0.000006
 step:   1.8499(harm=  1.8499)  dis= 0.00072  next Energy=   -27.045264 (dE=-0.120E-04)
 bond charge predicted
       N       E                     dE             d eps       ncg     rms          rms(c)
DAV:   1    -0.270451619639E+02    0.99537E-04   -0.30633E-03 14200   0.201E+00    0.394E-02
DAV:   2    -0.270452717046E+02   -0.10974E-03   -0.12560E-03 10528   0.314E-01    0.345E-02
DAV:   3    -0.270452778543E+02   -0.61496E-05   -0.13158E-04 12808   0.202E-01    0.438E-02
DAV:   4    -0.270452642254E+02    0.13629E-04   -0.50438E-05 14016   0.121E-01    0.704E-03
DAV:   5    -0.270452637952E+02    0.43015E-06   -0.51156E-06 12680   0.239E-02    0.519E-03
DAV:   6    -0.270452635878E+02    0.20743E-06   -0.12318E-06 11488   0.140E-02    0.136E-03
DAV:   7    -0.270452635857E+02    0.20755E-08   -0.62701E-08  9952   0.357E-03
  25 F= -.27045264E+02 E0= -.27045160E+02  d E =-.120792E-04  mag=     0.0000
 curvature:  -1.04 expect dE=-0.140E-05 dE for cont linesearch -0.506E-07
 trial: gam= 0.03528 g(F)=  0.560E-06 g(S)=  0.783E-06 ort = 0.843E-06 (trialstep = 0.124E+01)
 search vector abs. value=  0.142E-05
 reached required accuracy - stopping structural energy minimisation
 writing wavefunctions
