   6   6   0   0
  0.1235554E+02  0.4466403E-09  0.4466403E-09  0.4639964E-09  0.5000000E-15
  1.000000000000000E-004
  CAR 
 unknown system                          
     23.69095023    -58.55645995  301      8.85334882      1.00000000
    -58.556  0.0000E+00  0.0000E+00  0.0000E+00  0.0000E+00
    -58.282  0.0000E+00  0.0000E+00  0.0000E+00  0.0000E+00
    -58.008  0.0000E+00  0.0000E+00  0.0000E+00  0.0000E+00
    -57.734  0.0000E+00  0.0000E+00  0.0000E+00  0.0000E+00
    -57.460  0.0000E+00  0.0000E+00  0.0000E+00  0.0000E+00
    -57.186  0.0000E+00  0.0000E+00  0.0000E+00  0.0000E+00
    -56.912  0.0000E+00  0.0000E+00  0.0000E+00  0.0000E+00
    -56.637  0.0000E+00  0.0000E+00  0.0000E+00  0.0000E+00
    -56.363  0.0000E+00  0.0000E+00  0.0000E+00  0.0000E+00
    -56.089  0.0000E+00  0.0000E+00  0.0000E+00  0.0000E+00
    -55.815  0.0000E+00  0.0000E+00  0.0000E+00  0.0000E+00
    -55.541  0.0000E+00  0.0000E+00  0.0000E+00  0.0000E+00
    -55.267  0.0000E+00  0.0000E+00  0.0000E+00  0.0000E+00
    -54.992  0.0000E+00  0.0000E+00  0.0000E+00  0.0000E+00
    -54.718  0.0000E+00  0.0000E+00  0.2000E+01  0.2000E+01
    -54.444  0.5133E+02  0.5133E+02  0.7922E+01  0.7922E+01
    -54.170  0.0000E+00  0.0000E+00  0.9000E+01  0.9000E+01
    -53.896  0.0000E+00  0.0000E+00  0.9000E+01  0.9000E+01
    -53.622  0.0000E+00  0.0000E+00  0.9000E+01  0.9000E+01
    -53.347  0.0000E+00  0.0000E+00  0.9000E+01  0.9000E+01
    -53.073  0.0000E+00  0.0000E+00  0.9000E+01  0.9000E+01
    -52.799  0.0000E+00  0.0000E+00  0.9000E+01  0.9000E+01
    -52.525  0.0000E+00  0.0000E+00  0.9000E+01  0.9000E+01
    -52.251  0.0000E+00  0.0000E+00  0.9000E+01  0.9000E+01
    -51.977  0.0000E+00  0.0000E+00  0.9000E+01  0.9000E+01
    -51.703  0.0000E+00  0.0000E+00  0.9000E+01  0.9000E+01
    -51.428  0.0000E+00  0.0000E+00  0.9000E+01  0.9000E+01
    -51.154  0.0000E+00  0.0000E+00  0.9000E+01  0.9000E+01
    -50.880  0.0000E+00  0.0000E+00  0.9000E+01  0.9000E+01
    -50.606  0.0000E+00  0.0000E+00  0.9000E+01  0.9000E+01
    -50.332  0.0000E+00  0.0000E+00  0.9000E+01  0.9000E+01
    -50.058  0.0000E+00  0.0000E+00  0.9000E+01  0.9000E+01
    -49.783  0.0000E+00  0.0000E+00  0.9000E+01  0.9000E+01
    -49.509  0.0000E+00  0.0000E+00  0.9000E+01  0.9000E+01
    -49.235  0.0000E+00  0.0000E+00  0.9000E+01  0.9000E+01
    -48.961  0.0000E+00  0.0000E+00  0.9000E+01  0.9000E+01
    -48.687  0.0000E+00  0.0000E+00  0.9000E+01  0.9000E+01
    -48.413  0.0000E+00  0.0000E+00  0.9000E+01  0.9000E+01
    -48.138  0.0000E+00  0.0000E+00  0.9000E+01  0.9000E+01
    -47.864  0.0000E+00  0.0000E+00  0.9000E+01  0.9000E+01
    -47.590  0.0000E+00  0.0000E+00  0.9000E+01  0.9000E+01
    -47.316  0.0000E+00  0.0000E+00  0.9000E+01  0.9000E+01
    -47.042  0.0000E+00  0.0000E+00  0.9000E+01  0.9000E+01
    -46.768  0.0000E+00  0.0000E+00  0.9000E+01  0.9000E+01
    -46.494  0.0000E+00  0.0000E+00  0.9000E+01  0.9000E+01
    -46.219  0.0000E+00  0.0000E+00  0.9000E+01  0.9000E+01
    -45.945  0.0000E+00  0.0000E+00  0.9000E+01  0.9000E+01
    -45.671  0.0000E+00  0.0000E+00  0.9000E+01  0.9000E+01
    -45.397  0.0000E+00  0.0000E+00  0.9000E+01  0.9000E+01
    -45.123  0.0000E+00  0.0000E+00  0.9000E+01  0.9000E+01
    -44.849  0.0000E+00  0.0000E+00  0.9000E+01  0.9000E+01
    -44.574  0.0000E+00  0.0000E+00  0.9000E+01  0.9000E+01
    -44.300  0.0000E+00  0.0000E+00  0.9000E+01  0.9000E+01
    -44.026  0.0000E+00  0.0000E+00  0.9000E+01  0.9000E+01
    -43.752  0.0000E+00  0.0000E+00  0.9000E+01  0.9000E+01
    -43.478  0.0000E+00  0.0000E+00  0.9000E+01  0.9000E+01
    -43.204  0.0000E+00  0.0000E+00  0.9000E+01  0.9000E+01
    -42.929  0.0000E+00  0.0000E+00  0.9000E+01  0.9000E+01
    -42.655  0.0000E+00  0.0000E+00  0.9000E+01  0.9000E+01
    -42.381  0.0000E+00  0.0000E+00  0.9000E+01  0.9000E+01
    -42.107  0.0000E+00  0.0000E+00  0.9000E+01  0.9000E+01
    -41.833  0.0000E+00  0.0000E+00  0.9000E+01  0.9000E+01
    -41.559  0.0000E+00  0.0000E+00  0.9000E+01  0.9000E+01
    -41.285  0.0000E+00  0.0000E+00  0.9000E+01  0.9000E+01
    -41.010  0.0000E+00  0.0000E+00  0.9000E+01  0.9000E+01
    -40.736  0.0000E+00  0.0000E+00  0.9000E+01  0.9000E+01
    -40.462  0.0000E+00  0.0000E+00  0.9000E+01  0.9000E+01
    -40.188  0.0000E+00  0.0000E+00  0.9000E+01  0.9000E+01
    -39.914  0.0000E+00  0.0000E+00  0.9000E+01  0.9000E+01
    -39.640  0.0000E+00  0.0000E+00  0.9000E+01  0.9000E+01
    -39.365  0.0000E+00  0.0000E+00  0.9000E+01  0.9000E+01
    -39.091  0.0000E+00  0.0000E+00  0.9000E+01  0.9000E+01
    -38.817  0.0000E+00  0.0000E+00  0.9000E+01  0.9000E+01
    -38.543  0.0000E+00  0.0000E+00  0.9000E+01  0.9000E+01
    -38.269  0.0000E+00  0.0000E+00  0.9000E+01  0.9000E+01
    -37.995  0.0000E+00  0.0000E+00  0.9000E+01  0.9000E+01
    -37.720  0.0000E+00  0.0000E+00  0.9000E+01  0.9000E+01
    -37.446  0.0000E+00  0.0000E+00  0.9000E+01  0.9000E+01
    -37.172  0.0000E+00  0.0000E+00  0.9000E+01  0.9000E+01
    -36.898  0.0000E+00  0.0000E+00  0.9000E+01  0.9000E+01
    -36.624  0.0000E+00  0.0000E+00  0.9000E+01  0.9000E+01
    -36.350  0.0000E+00  0.0000E+00  0.9000E+01  0.9000E+01
    -36.076  0.0000E+00  0.0000E+00  0.9000E+01  0.9000E+01
    -35.801  0.0000E+00  0.0000E+00  0.9000E+01  0.9000E+01
    -35.527  0.0000E+00  0.0000E+00  0.9000E+01  0.9000E+01
    -35.253  0.0000E+00  0.0000E+00  0.9000E+01  0.9000E+01
    -34.979  0.0000E+00  0.0000E+00  0.9000E+01  0.9000E+01
    -34.705  0.0000E+00  0.0000E+00  0.9000E+01  0.9000E+01
    -34.431  0.0000E+00  0.0000E+00  0.9000E+01  0.9000E+01
    -34.156  0.0000E+00  0.0000E+00  0.9000E+01  0.9000E+01
    -33.882  0.0000E+00  0.0000E+00  0.9000E+01  0.9000E+01
    -33.608  0.0000E+00  0.0000E+00  0.9000E+01  0.9000E+01
    -33.334  0.0000E+00  0.0000E+00  0.9000E+01  0.9000E+01
    -33.060  0.0000E+00  0.0000E+00  0.9000E+01  0.9000E+01
    -32.786  0.0000E+00  0.0000E+00  0.9000E+01  0.9000E+01
    -32.511  0.0000E+00  0.0000E+00  0.9000E+01  0.9000E+01
    -32.237  0.0000E+00  0.0000E+00  0.9000E+01  0.9000E+01
    -31.963  0.0000E+00  0.0000E+00  0.9000E+01  0.9000E+01
    -31.689  0.0000E+00  0.0000E+00  0.9000E+01  0.9000E+01
    -31.415  0.0000E+00  0.0000E+00  0.9000E+01  0.9000E+01
    -31.141  0.0000E+00  0.0000E+00  0.9000E+01  0.9000E+01
    -30.866  0.0000E+00  0.0000E+00  0.9000E+01  0.9000E+01
    -30.592  0.0000E+00  0.0000E+00  0.9000E+01  0.9000E+01
    -30.318  0.0000E+00  0.0000E+00  0.9000E+01  0.9000E+01
    -30.044  0.0000E+00  0.0000E+00  0.9000E+01  0.9000E+01
    -29.770  0.0000E+00  0.0000E+00  0.9000E+01  0.9000E+01
    -29.496  0.0000E+00  0.0000E+00  0.9000E+01  0.9000E+01
    -29.222  0.0000E+00  0.0000E+00  0.9000E+01  0.9000E+01
    -28.947  0.0000E+00  0.0000E+00  0.9000E+01  0.9000E+01
    -28.673  0.0000E+00  0.0000E+00  0.9000E+01  0.9000E+01
    -28.399  0.0000E+00  0.0000E+00  0.9000E+01  0.9000E+01
    -28.125  0.0000E+00  0.0000E+00  0.9000E+01  0.9000E+01
    -27.851  0.0000E+00  0.0000E+00  0.9000E+01  0.9000E+01
    -27.577  0.0000E+00  0.0000E+00  0.9000E+01  0.9000E+01
    -27.302  0.0000E+00  0.0000E+00  0.9000E+01  0.9000E+01
    -27.028  0.0000E+00  0.0000E+00  0.9000E+01  0.9000E+01
    -26.754  0.0000E+00  0.0000E+00  0.9000E+01  0.9000E+01
    -26.480  0.0000E+00  0.0000E+00  0.9000E+01  0.9000E+01
    -26.206  0.0000E+00  0.0000E+00  0.9000E+01  0.9000E+01
    -25.932  0.0000E+00  0.0000E+00  0.9000E+01  0.9000E+01
    -25.657  0.0000E+00  0.0000E+00  0.9000E+01  0.9000E+01
    -25.383  0.0000E+00  0.0000E+00  0.9000E+01  0.9000E+01
    -25.109  0.0000E+00  0.0000E+00  0.9000E+01  0.9000E+01
    -24.835  0.0000E+00  0.0000E+00  0.9000E+01  0.9000E+01
    -24.561  0.0000E+00  0.0000E+00  0.9000E+01  0.9000E+01
    -24.287  0.0000E+00  0.0000E+00  0.9000E+01  0.9000E+01
    -24.013  0.0000E+00  0.0000E+00  0.9000E+01  0.9000E+01
    -23.738  0.0000E+00  0.0000E+00  0.9000E+01  0.9000E+01
    -23.464  0.0000E+00  0.0000E+00  0.9000E+01  0.9000E+01
    -23.190  0.0000E+00  0.0000E+00  0.9000E+01  0.9000E+01
    -22.916  0.0000E+00  0.0000E+00  0.9000E+01  0.9000E+01
    -22.642  0.0000E+00  0.0000E+00  0.9000E+01  0.9000E+01
    -22.368  0.0000E+00  0.0000E+00  0.9000E+01  0.9000E+01
    -22.093  0.0000E+00  0.0000E+00  0.9000E+01  0.9000E+01
    -21.819  0.0000E+00  0.0000E+00  0.9000E+01  0.9000E+01
    -21.545  0.0000E+00  0.0000E+00  0.9000E+01  0.9000E+01
    -21.271  0.0000E+00  0.0000E+00  0.9000E+01  0.9000E+01
    -20.997  0.0000E+00  0.0000E+00  0.9000E+01  0.9000E+01
    -20.723  0.0000E+00  0.0000E+00  0.9000E+01  0.9000E+01
    -20.448  0.0000E+00  0.0000E+00  0.9000E+01  0.9000E+01
    -20.174  0.0000E+00  0.0000E+00  0.9000E+01  0.9000E+01
    -19.900  0.0000E+00  0.0000E+00  0.9000E+01  0.9000E+01
    -19.626  0.0000E+00  0.0000E+00  0.9000E+01  0.9000E+01
    -19.352  0.0000E+00  0.0000E+00  0.9000E+01  0.9000E+01
    -19.078  0.0000E+00  0.0000E+00  0.9000E+01  0.9000E+01
    -18.804  0.0000E+00  0.0000E+00  0.9000E+01  0.9000E+01
    -18.529  0.0000E+00  0.0000E+00  0.9000E+01  0.9000E+01
    -18.255  0.0000E+00  0.0000E+00  0.9000E+01  0.9000E+01
    -17.981  0.0000E+00  0.0000E+00  0.9000E+01  0.9000E+01
    -17.707  0.0000E+00  0.0000E+00  0.9000E+01  0.9000E+01
    -17.433  0.0000E+00  0.0000E+00  0.9000E+01  0.9000E+01
    -17.159  0.0000E+00  0.0000E+00  0.9000E+01  0.9000E+01
    -16.884  0.0000E+00  0.0000E+00  0.9000E+01  0.9000E+01
    -16.610  0.0000E+00  0.0000E+00  0.9000E+01  0.9000E+01
    -16.336  0.0000E+00  0.0000E+00  0.9000E+01  0.9000E+01
    -16.062  0.0000E+00  0.0000E+00  0.9000E+01  0.9000E+01
    -15.788  0.0000E+00  0.0000E+00  0.9000E+01  0.9000E+01
    -15.514  0.0000E+00  0.0000E+00  0.9000E+01  0.9000E+01
    -15.239  0.0000E+00  0.0000E+00  0.9000E+01  0.9000E+01
    -14.965  0.0000E+00  0.0000E+00  0.9000E+01  0.9000E+01
    -14.691  0.0000E+00  0.0000E+00  0.9000E+01  0.9000E+01
    -14.417  0.0000E+00  0.0000E+00  0.9000E+01  0.9000E+01
    -14.143  0.0000E+00  0.0000E+00  0.9000E+01  0.9000E+01
    -13.869  0.0000E+00  0.0000E+00  0.9000E+01  0.9000E+01
    -13.595  0.0000E+00  0.0000E+00  0.9000E+01  0.9000E+01
    -13.320  0.0000E+00  0.0000E+00  0.9000E+01  0.9000E+01
    -13.046  0.0000E+00  0.0000E+00  0.9000E+01  0.9000E+01
    -12.772  0.0000E+00  0.0000E+00  0.9000E+01  0.9000E+01
    -12.498  0.0000E+00  0.0000E+00  0.9000E+01  0.9000E+01
    -12.224  0.0000E+00  0.0000E+00  0.9000E+01  0.9000E+01
    -11.950  0.0000E+00  0.0000E+00  0.9000E+01  0.9000E+01
    -11.675  0.0000E+00  0.0000E+00  0.9000E+01  0.9000E+01
    -11.401  0.0000E+00  0.0000E+00  0.9000E+01  0.9000E+01
    -11.127  0.0000E+00  0.0000E+00  0.9000E+01  0.9000E+01
    -10.853  0.0000E+00  0.0000E+00  0.9000E+01  0.9000E+01
    -10.579  0.0000E+00  0.0000E+00  0.9000E+01  0.9000E+01
    -10.305  0.0000E+00  0.0000E+00  0.9000E+01  0.9000E+01
    -10.030  0.0000E+00  0.0000E+00  0.9000E+01  0.9000E+01
     -9.756  0.0000E+00  0.0000E+00  0.9000E+01  0.9000E+01
     -9.482  0.0000E+00  0.0000E+00  0.9000E+01  0.9000E+01
     -9.208  0.0000E+00  0.0000E+00  0.9000E+01  0.9000E+01
     -8.934  0.0000E+00  0.0000E+00  0.9000E+01  0.9000E+01
     -8.660  0.0000E+00  0.0000E+00  0.9000E+01  0.9000E+01
     -8.386  0.0000E+00  0.0000E+00  0.9000E+01  0.9000E+01
     -8.111  0.0000E+00  0.0000E+00  0.9000E+01  0.9000E+01
     -7.837  0.0000E+00  0.0000E+00  0.9000E+01  0.9000E+01
     -7.563  0.0000E+00  0.0000E+00  0.9000E+01  0.9000E+01
     -7.289  0.0000E+00  0.0000E+00  0.9000E+01  0.9000E+01
     -7.015  0.0000E+00  0.0000E+00  0.9000E+01  0.9000E+01
     -6.741  0.0000E+00  0.0000E+00  0.9000E+01  0.9000E+01
     -6.466  0.0000E+00  0.0000E+00  0.9000E+01  0.9000E+01
     -6.192  0.0000E+00  0.0000E+00  0.9000E+01  0.9000E+01
     -5.918  0.0000E+00  0.0000E+00  0.9000E+01  0.9000E+01
     -5.644  0.0000E+00  0.0000E+00  0.9000E+01  0.9000E+01
     -5.370  0.0000E+00  0.0000E+00  0.9000E+01  0.9000E+01
     -5.096  0.0000E+00  0.0000E+00  0.9000E+01  0.9000E+01
     -4.821  0.0000E+00  0.0000E+00  0.9000E+01  0.9000E+01
     -4.547  0.0000E+00  0.0000E+00  0.9000E+01  0.9000E+01
     -4.273  0.0000E+00  0.0000E+00  0.9000E+01  0.9000E+01
     -3.999  0.0000E+00  0.0000E+00  0.9000E+01  0.9000E+01
     -3.725  0.0000E+00  0.0000E+00  0.9000E+01  0.9000E+01
     -3.451  0.0000E+00  0.0000E+00  0.9000E+01  0.9000E+01
     -3.177  0.0000E+00  0.0000E+00  0.9000E+01  0.9000E+01
     -2.902  0.0000E+00  0.0000E+00  0.9000E+01  0.9000E+01
     -2.628  0.0000E+00  0.0000E+00  0.9000E+01  0.9000E+01
     -2.354  0.0000E+00  0.0000E+00  0.9000E+01  0.9000E+01
     -2.080  0.8179E-03  0.8179E-03  0.9000E+01  0.9000E+01
     -1.806  0.1566E+00  0.1566E+00  0.9013E+01  0.9013E+01
     -1.532  0.1704E+00  0.1704E+00  0.9053E+01  0.9053E+01
     -1.257  0.2359E+00  0.2359E+00  0.9109E+01  0.9109E+01
     -0.983  0.2801E+00  0.2801E+00  0.9180E+01  0.9180E+01
     -0.709  0.3284E+00  0.3284E+00  0.9263E+01  0.9263E+01
     -0.435  0.4313E+00  0.4313E+00  0.9365E+01  0.9365E+01
     -0.161  0.4516E+00  0.4516E+00  0.9482E+01  0.9482E+01
      0.113  0.5502E+00  0.5502E+00  0.9629E+01  0.9629E+01
      0.388  0.4764E+00  0.4764E+00  0.9770E+01  0.9770E+01
      0.662  0.3713E+00  0.3713E+00  0.9887E+01  0.9887E+01
      0.936  0.2580E+00  0.2580E+00  0.9972E+01  0.9972E+01
      1.210  0.2974E+00  0.2974E+00  0.1005E+02  0.1005E+02
      1.484  0.7656E+00  0.7656E+00  0.1019E+02  0.1019E+02
      1.758  0.7174E+00  0.7174E+00  0.1042E+02  0.1042E+02
      2.032  0.5974E+00  0.5974E+00  0.1059E+02  0.1059E+02
      2.307  0.4923E+00  0.4923E+00  0.1073E+02  0.1073E+02
      2.581  0.6732E+00  0.6732E+00  0.1089E+02  0.1089E+02
      2.855  0.8428E+00  0.8428E+00  0.1110E+02  0.1110E+02
      3.129  0.7609E+00  0.7609E+00  0.1132E+02  0.1132E+02
      3.403  0.7765E+00  0.7765E+00  0.1154E+02  0.1154E+02
      3.677  0.8359E+00  0.8359E+00  0.1175E+02  0.1175E+02
      3.952  0.9968E+00  0.9968E+00  0.1200E+02  0.1200E+02
      4.226  0.1370E+01  0.1370E+01  0.1235E+02  0.1235E+02
      4.500  0.1076E+01  0.1076E+01  0.1271E+02  0.1271E+02
      4.774  0.9878E+00  0.9878E+00  0.1297E+02  0.1297E+02
      5.048  0.1437E+01  0.1437E+01  0.1328E+02  0.1328E+02
      5.322  0.2150E+01  0.2150E+01  0.1382E+02  0.1382E+02
      5.597  0.2520E+01  0.2520E+01  0.1451E+02  0.1451E+02
      5.871  0.6807E+01  0.6807E+01  0.1550E+02  0.1550E+02
      6.145  0.7232E+01  0.7232E+01  0.1680E+02  0.1680E+02
      6.419  0.7114E+01  0.7114E+01  0.1835E+02  0.1835E+02
      6.693  0.3605E+01  0.3605E+01  0.2002E+02  0.2002E+02
      6.967  0.3702E+01  0.3702E+01  0.2118E+02  0.2118E+02
      7.241  0.3533E+01  0.3533E+01  0.2236E+02  0.2236E+02
      7.516  0.5666E+01  0.5666E+01  0.2400E+02  0.2400E+02
      7.790  0.4616E+01  0.4616E+01  0.2571E+02  0.2571E+02
      8.064  0.2969E+01  0.2969E+01  0.2672E+02  0.2672E+02
      8.338  0.2021E+01  0.2021E+01  0.2775E+02  0.2775E+02
      8.612  0.1327E+01  0.1327E+01  0.2814E+02  0.2814E+02
      8.886  0.1394E+01  0.1394E+01  0.2855E+02  0.2855E+02
      9.161  0.1246E+01  0.1246E+01  0.2890E+02  0.2890E+02
      9.435  0.9426E+00  0.9426E+00  0.2919E+02  0.2919E+02
      9.709  0.8152E+00  0.8152E+00  0.2944E+02  0.2944E+02
      9.983  0.7919E+00  0.7919E+00  0.2966E+02  0.2966E+02
     10.257  0.7146E+00  0.7146E+00  0.2986E+02  0.2986E+02
     10.531  0.7091E+00  0.7091E+00  0.3005E+02  0.3005E+02
     10.806  0.1403E+01  0.1403E+01  0.3033E+02  0.3033E+02
     11.080  0.1130E+01  0.1130E+01  0.3071E+02  0.3071E+02
     11.354  0.1139E+01  0.1139E+01  0.3102E+02  0.3102E+02
     11.628  0.1038E+01  0.1038E+01  0.3132E+02  0.3132E+02
     11.902  0.1038E+01  0.1038E+01  0.3159E+02  0.3159E+02
     12.176  0.1085E+01  0.1085E+01  0.3189E+02  0.3189E+02
     12.450  0.9214E+00  0.9214E+00  0.3217E+02  0.3217E+02
     12.725  0.1042E+01  0.1042E+01  0.3243E+02  0.3243E+02
     12.999  0.1330E+01  0.1330E+01  0.3276E+02  0.3276E+02
     13.273  0.1121E+01  0.1121E+01  0.3310E+02  0.3310E+02
     13.547  0.9431E+00  0.9431E+00  0.3338E+02  0.3338E+02
     13.821  0.1003E+01  0.1003E+01  0.3364E+02  0.3364E+02
     14.095  0.1140E+01  0.1140E+01  0.3394E+02  0.3394E+02
     14.370  0.1249E+01  0.1249E+01  0.3427E+02  0.3427E+02
     14.644  0.1150E+01  0.1150E+01  0.3459E+02  0.3459E+02
     14.918  0.1010E+01  0.1010E+01  0.3489E+02  0.3489E+02
     15.192  0.1037E+01  0.1037E+01  0.3517E+02  0.3517E+02
     15.466  0.1137E+01  0.1137E+01  0.3546E+02  0.3546E+02
     15.740  0.1309E+01  0.1309E+01  0.3579E+02  0.3579E+02
     16.015  0.1261E+01  0.1261E+01  0.3615E+02  0.3615E+02
     16.289  0.1334E+01  0.1334E+01  0.3649E+02  0.3649E+02
     16.563  0.1417E+01  0.1417E+01  0.3688E+02  0.3688E+02
     16.837  0.1267E+01  0.1267E+01  0.3725E+02  0.3725E+02
     17.111  0.1130E+01  0.1130E+01  0.3758E+02  0.3758E+02
     17.385  0.1152E+01  0.1152E+01  0.3790E+02  0.3790E+02
     17.659  0.1102E+01  0.1102E+01  0.3821E+02  0.3821E+02
     17.934  0.1283E+01  0.1283E+01  0.3852E+02  0.3852E+02
     18.208  0.1250E+01  0.1250E+01  0.3887E+02  0.3887E+02
     18.482  0.1007E+01  0.1007E+01  0.3919E+02  0.3919E+02
     18.756  0.1252E+01  0.1252E+01  0.3952E+02  0.3952E+02
     19.030  0.7975E+00  0.7975E+00  0.3980E+02  0.3980E+02
     19.304  0.2665E+00  0.2665E+00  0.3996E+02  0.3996E+02
     19.579  0.5315E-01  0.5315E-01  0.3999E+02  0.3999E+02
     19.853  0.2160E-02  0.2160E-02  0.4000E+02  0.4000E+02
     20.127  0.0000E+00  0.0000E+00  0.4000E+02  0.4000E+02
     20.401  0.0000E+00  0.0000E+00  0.4000E+02  0.4000E+02
     20.675  0.0000E+00  0.0000E+00  0.4000E+02  0.4000E+02
     20.949  0.0000E+00  0.0000E+00  0.4000E+02  0.4000E+02
     21.224  0.0000E+00  0.0000E+00  0.4000E+02  0.4000E+02
     21.498  0.0000E+00  0.0000E+00  0.4000E+02  0.4000E+02
     21.772  0.0000E+00  0.0000E+00  0.4000E+02  0.4000E+02
     22.046  0.0000E+00  0.0000E+00  0.4000E+02  0.4000E+02
     22.320  0.0000E+00  0.0000E+00  0.4000E+02  0.4000E+02
     22.594  0.0000E+00  0.0000E+00  0.4000E+02  0.4000E+02
     22.868  0.0000E+00  0.0000E+00  0.4000E+02  0.4000E+02
     23.143  0.0000E+00  0.0000E+00  0.4000E+02  0.4000E+02
     23.417  0.0000E+00  0.0000E+00  0.4000E+02  0.4000E+02
     23.691  0.0000E+00  0.0000E+00  0.4000E+02  0.4000E+02
