       N       E                     dE             d eps       ncg     rms          rms(c)
DAV:   1     0.636898592561E+03    0.63690E+03   -0.32532E+04 13000   0.157E+03
DAV:   2     0.110026598877E+01   -0.63580E+03   -0.60405E+03 11360   0.507E+02
DAV:   3    -0.340320632359E+02   -0.35132E+02   -0.33762E+02 12656   0.140E+02
DAV:   4    -0.348358230971E+02   -0.80376E+00   -0.80237E+00 12136   0.206E+01
DAV:   5    -0.348594008141E+02   -0.23578E-01   -0.23576E-01 13408   0.369E+00    0.248E+01
DAV:   6    -0.458102220298E+02   -0.10951E+02   -0.10066E+02 12208   0.130E+02    0.328E+01
DAV:   7    -0.305977994495E+02    0.15212E+02   -0.37466E+01 12040   0.832E+01    0.434E+00
DAV:   8    -0.305636932735E+02    0.34106E-01   -0.26103E+00 14568   0.134E+01    0.260E+00
DAV:   9    -0.305491703345E+02    0.14523E-01   -0.36003E-01 13568   0.106E+01    0.265E+00
DAV:  10    -0.304992910563E+02    0.49879E-01   -0.22957E-01 12864   0.812E+00    0.725E-01
DAV:  11    -0.304944859316E+02    0.48051E-02   -0.19396E-02 13232   0.140E+00    0.247E-01
DAV:  12    -0.304945457993E+02   -0.59868E-04   -0.24049E-03 15312   0.458E-01    0.905E-02
DAV:  13    -0.304945080195E+02    0.37780E-04   -0.18078E-04 12432   0.121E-01    0.783E-02
DAV:  14    -0.304944372515E+02    0.70768E-04   -0.11743E-04 15392   0.104E-01    0.182E-02
DAV:  15    -0.304944351742E+02    0.20773E-05   -0.25677E-05 15056   0.465E-02    0.742E-03
DAV:  16    -0.304944343670E+02    0.80713E-06   -0.12261E-06 12544   0.108E-02    0.390E-03
DAV:  17    -0.304944340832E+02    0.28380E-06   -0.40628E-07 13800   0.711E-03    0.635E-04
DAV:  18    -0.304944340478E+02    0.35401E-07   -0.20253E-08  9120   0.131E-03    0.246E-04
DAV:  19    -0.304944340222E+02    0.25582E-07   -0.51409E-09  6936   0.688E-04    0.577E-05
DAV:  20    -0.304944340187E+02    0.35434E-08   -0.96244E-10  6528   0.222E-04
   1 F= -.30494434E+02 E0= -.30494559E+02  d E =-.304944E+02  mag=     0.0000
       N       E                     dE             d eps       ncg     rms          rms(c)
DAV:   1    -0.148249583353E+03   -0.11776E+03   -0.14632E+03 10960   0.517E+02    0.833E+01
DAV:   2    -0.728993255543E+02    0.75350E+02   -0.73777E+02 12808   0.241E+02    0.567E+01
DAV:   3    -0.485812945553E+02    0.24318E+02   -0.25462E+02 12464   0.170E+02    0.378E+01
DAV:   4    -0.318113658423E+02    0.16770E+02   -0.59142E+01 12816   0.940E+01    0.534E+00
DAV:   5    -0.316232165984E+02    0.18815E+00   -0.29480E+00 14752   0.231E+01    0.616E+00
DAV:   6    -0.313918913397E+02    0.23133E+00   -0.42260E+00 12168   0.230E+01    0.711E+00
DAV:   7    -0.308956576417E+02    0.49623E+00   -0.10174E+00 13552   0.108E+01    0.130E+00
DAV:   8    -0.308823577068E+02    0.13300E-01   -0.56186E-02 13184   0.261E+00    0.400E-01
DAV:   9    -0.308804782511E+02    0.18795E-02   -0.90850E-03 14432   0.891E-01    0.974E-02
DAV:  10    -0.308805688489E+02   -0.90598E-04   -0.17780E-03 11712   0.342E-01    0.611E-02
DAV:  11    -0.308805665522E+02    0.22967E-05   -0.40120E-05 14216   0.529E-02    0.497E-02
DAV:  12    -0.308805503446E+02    0.16208E-04   -0.73850E-05 14192   0.132E-01    0.100E-02
DAV:  13    -0.308805511242E+02   -0.77961E-06   -0.10706E-05 12056   0.350E-02    0.622E-03
DAV:  14    -0.308805506337E+02    0.49051E-06   -0.10951E-06 12448   0.111E-02    0.139E-03
DAV:  15    -0.308805506433E+02   -0.96243E-08   -0.63799E-08 11288   0.221E-03
   2 F= -.30880551E+02 E0= -.30880636E+02  d E =-.386117E+00  mag=     0.0000
       N       E                     dE             d eps       ncg     rms          rms(c)
DAV:   1    -0.683369102854E+02   -0.37456E+02   -0.32693E+02 11872   0.191E+02    0.646E+01
DAV:   2    -0.113879353916E+03   -0.45542E+02   -0.64058E+02 11504   0.318E+02    0.591E+01
DAV:   3    -0.370649685301E+02    0.76814E+02   -0.21063E+02 12704   0.144E+02    0.173E+01
DAV:   4    -0.369414291930E+02    0.12354E+00   -0.22591E+00 11888   0.105E+01    0.169E+01
DAV:   5    -0.355329705096E+02    0.14085E+01   -0.36733E-01 13248   0.863E+00    0.143E+01
DAV:   6    -0.331586838282E+02    0.23743E+01   -0.19465E+00 13160   0.198E+01    0.881E+00
DAV:   7    -0.318208771205E+02    0.13378E+01   -0.68261E+00 13952   0.364E+01    0.786E+00
DAV:   8    -0.316221924282E+02    0.19868E+00   -0.73981E-01 12416   0.103E+01    0.556E+00
DAV:   9    -0.314179597355E+02    0.20423E+00   -0.24563E-01 13424   0.517E+00    0.298E+00
DAV:  10    -0.313765838983E+02    0.41376E-01   -0.20691E-02 12416   0.976E-01    0.262E+00
DAV:  11    -0.313153400021E+02    0.61244E-01   -0.75477E-02 12456   0.308E+00    0.115E+00
DAV:  12    -0.312984040636E+02    0.16936E-01   -0.21141E-02 11952   0.107E+00    0.725E-01
DAV:  13    -0.312928677332E+02    0.55363E-02   -0.20796E-02 12672   0.157E+00    0.834E-02
DAV:  14    -0.312928857056E+02   -0.17972E-04   -0.11902E-03 13136   0.371E-01    0.652E-02
DAV:  15    -0.312928712304E+02    0.14475E-04   -0.17469E-04 13472   0.195E-01    0.145E-02
DAV:  16    -0.312928691472E+02    0.20833E-05   -0.31478E-05 13232   0.507E-02    0.154E-02
DAV:  17    -0.312928653717E+02    0.37754E-05   -0.12801E-05 12464   0.428E-02    0.349E-03
DAV:  18    -0.312928654984E+02   -0.12665E-06   -0.11903E-06 13544   0.133E-02    0.261E-03
DAV:  19    -0.312928653218E+02    0.17663E-06   -0.68538E-08 10896   0.267E-03    0.164E-03
DAV:  20    -0.312928652395E+02    0.82222E-07   -0.60384E-08  9840   0.285E-03    0.288E-04
DAV:  21    -0.312928652553E+02   -0.15805E-07   -0.51038E-09  6856   0.626E-04    0.102E-04
DAV:  22    -0.312928652613E+02   -0.60045E-08   -0.11395E-09  6192   0.241E-04
   3 F= -.31292865E+02 E0= -.31292717E+02  d E =-.798431E+00  mag=    -0.0000
       N       E                     dE             d eps       ncg     rms          rms(c)
DAV:   1    -0.319553739205E+02   -0.66251E+00   -0.14843E+01 14912   0.388E+01    0.730E+00
DAV:   2    -0.322162230066E+02   -0.26085E+00   -0.56064E+00 12336   0.276E+01    0.837E+00
DAV:   3    -0.314510746792E+02    0.76515E+00   -0.25144E+00 12192   0.189E+01    0.243E+00
DAV:   4    -0.313791508917E+02    0.71924E-01   -0.20441E-01 15552   0.522E+00    0.112E+00
DAV:   5    -0.313715949825E+02    0.75559E-02   -0.40024E-02 13712   0.359E+00    0.373E-01
DAV:   6    -0.313706185693E+02    0.97641E-03   -0.68853E-03 12256   0.112E+00    0.961E-02
DAV:   7    -0.313706100395E+02    0.85298E-05   -0.58789E-04 12528   0.296E-01    0.271E-02
DAV:   8    -0.313706209925E+02   -0.10953E-04   -0.30179E-05 13552   0.543E-02    0.106E-02
DAV:   9    -0.313706212297E+02   -0.23717E-06   -0.24339E-06 13504   0.173E-02    0.139E-03
DAV:  10    -0.313706210670E+02    0.16271E-06   -0.24902E-07 12632   0.572E-03    0.543E-04
DAV:  11    -0.313706210272E+02    0.39823E-07   -0.13139E-08  7632   0.150E-03    0.132E-04
DAV:  12    -0.313706210133E+02    0.13919E-07   -0.38415E-09  6496   0.595E-04    0.560E-05
DAV:  13    -0.313706210142E+02   -0.93132E-09   -0.82573E-10  6272   0.296E-04
   4 F= -.31370621E+02 E0= -.31370494E+02  d E =-.777558E-01  mag=     0.0000
       N       E                     dE             d eps       ncg     rms          rms(c)
DAV:   1    -0.318106841230E+02   -0.44006E+00   -0.10251E+01 14784   0.324E+01    0.616E+00
DAV:   2    -0.320137953682E+02   -0.20311E+00   -0.41279E+00 12288   0.238E+01    0.717E+00
DAV:   3    -0.314479174770E+02    0.56588E+00   -0.18371E+00 12144   0.162E+01    0.201E+00
DAV:   4    -0.313929586484E+02    0.54959E-01   -0.12436E-01 14736   0.308E+00    0.344E-01
DAV:   5    -0.313927588298E+02    0.19982E-03   -0.14754E-02 12384   0.140E+00    0.115E-01
DAV:   6    -0.313927874999E+02   -0.28670E-04   -0.85161E-04 13968   0.509E-01    0.131E-01
DAV:   7    -0.313927031386E+02    0.84361E-04   -0.48050E-04 12512   0.388E-01    0.402E-02
DAV:   8    -0.313927113618E+02   -0.82233E-05   -0.60911E-05 12304   0.796E-02    0.684E-03
DAV:   9    -0.313927100351E+02    0.13268E-05   -0.35845E-06 14144   0.190E-02    0.280E-03
DAV:  10    -0.313927096777E+02    0.35736E-06   -0.25860E-07 14176   0.563E-03    0.496E-04
DAV:  11    -0.313927096376E+02    0.40140E-07   -0.27084E-08 10104   0.219E-03    0.191E-04
DAV:  12    -0.313927096240E+02    0.13606E-07   -0.18182E-09  6400   0.508E-04    0.713E-05
DAV:  13    -0.313927096227E+02    0.12369E-08   -0.54981E-10  6208   0.275E-04
   5 F= -.31392710E+02 E0= -.31392658E+02  d E =-.998444E-01  mag=    -0.0000
       N       E                     dE             d eps       ncg     rms          rms(c)
DAV:   1    -0.315105420671E+02   -0.11783E+00   -0.31307E+00 12224   0.124E+01    0.258E+00
DAV:   2    -0.314333343719E+02    0.77208E-01   -0.11808E-01 12448   0.467E+00    0.147E+00
DAV:   3    -0.314566615444E+02   -0.23327E-01   -0.23295E-01 13488   0.905E+00    0.256E+00
DAV:   4    -0.314051591151E+02    0.51502E-01   -0.12904E-01 12960   0.734E+00    0.632E-01
DAV:   5    -0.314019607597E+02    0.31984E-02   -0.20745E-02 12720   0.170E+00    0.104E-01
DAV:   6    -0.314019110421E+02    0.49718E-04   -0.19036E-03 12288   0.573E-01    0.662E-02
DAV:   7    -0.314018935429E+02    0.17499E-04   -0.17828E-04 14432   0.193E-01    0.206E-02
DAV:   8    -0.314018971214E+02   -0.35785E-05   -0.18841E-05 12672   0.542E-02    0.349E-03
DAV:   9    -0.314018971076E+02    0.13859E-07   -0.15077E-06 12192   0.122E-02    0.196E-03
DAV:  10    -0.314018970950E+02    0.12515E-07   -0.18464E-07 12864   0.531E-03    0.494E-04
DAV:  11    -0.314018970831E+02    0.11973E-07   -0.12826E-08  6384   0.143E-03    0.149E-04
DAV:  12    -0.314018970818E+02    0.12951E-08   -0.24023E-09  6320   0.499E-04
   6 F= -.31401897E+02 E0= -.31401729E+02  d E =-.918746E-02  mag=     0.0000
       N       E                     dE             d eps       ncg     rms          rms(c)
DAV:   1    -0.314056191807E+02   -0.37221E-02   -0.10074E-01 12208   0.223E+00    0.463E-01
DAV:   2    -0.314030895432E+02    0.25296E-02   -0.35872E-03 12384   0.824E-01    0.255E-01
DAV:   3    -0.314038175851E+02   -0.72804E-03   -0.66745E-03 13888   0.152E+00    0.468E-01
DAV:   4    -0.314021749767E+02    0.16426E-02   -0.46281E-03 12880   0.133E+00    0.891E-02
DAV:   5    -0.314021212245E+02    0.53752E-04   -0.52742E-04 12544   0.247E-01    0.148E-02
DAV:   6    -0.314021183578E+02    0.28667E-05   -0.38010E-05 12208   0.763E-02    0.884E-03
DAV:   7    -0.314021182050E+02    0.15273E-06   -0.31258E-06 14992   0.192E-02    0.312E-03
DAV:   8    -0.314021182657E+02   -0.60643E-07   -0.35549E-07 12544   0.712E-03    0.486E-04
DAV:   9    -0.314021182683E+02   -0.26503E-08   -0.18206E-08  7680   0.128E-03
   7 F= -.31402118E+02 E0= -.31401942E+02  d E =-.940865E-02  mag=    -0.0000
       N       E                     dE             d eps       ncg     rms          rms(c)
DAV:   1    -0.314040471110E+02   -0.19288E-02   -0.11842E-01 12704   0.829E+00    0.689E-01
DAV:   2    -0.314125227897E+02   -0.84757E-02   -0.96292E-02 12368   0.355E+00    0.936E-01
DAV:   3    -0.314030894968E+02    0.94333E-02   -0.30158E-02 12112   0.211E+00    0.207E-01
DAV:   4    -0.314031154767E+02   -0.25980E-04   -0.29024E-03 14496   0.963E-01    0.277E-01
DAV:   5    -0.314025515688E+02    0.56391E-03   -0.20638E-03 12976   0.874E-01    0.450E-02
DAV:   6    -0.314025444144E+02    0.71543E-05   -0.17417E-04 13872   0.160E-01    0.105E-02
DAV:   7    -0.314025436449E+02    0.76957E-06   -0.13024E-05 12736   0.393E-02    0.614E-03
DAV:   8    -0.314025434396E+02    0.20524E-06   -0.15671E-06 12480   0.166E-02    0.177E-03
DAV:   9    -0.314025433246E+02    0.11506E-06   -0.15567E-07 13280   0.604E-03    0.834E-04
DAV:  10    -0.314025432901E+02    0.34481E-07   -0.15648E-08  6624   0.237E-03    0.739E-05
DAV:  11    -0.314025432823E+02    0.77289E-08   -0.32308E-09  5928   0.410E-04
   8 F= -.31402543E+02 E0= -.31402326E+02  d E =-.425014E-03  mag=     0.0000
       N       E                     dE             d eps       ncg     rms          rms(c)
DAV:   1    -0.314026960016E+02   -0.15271E-03   -0.10024E-02 12704   0.241E+00    0.201E-01
DAV:   2    -0.314034145580E+02   -0.71856E-03   -0.82007E-03 12352   0.103E+00    0.270E-01
DAV:   3    -0.314026149545E+02    0.79960E-03   -0.25421E-03 12128   0.613E-01    0.597E-02
DAV:   4    -0.314026204745E+02   -0.55200E-05   -0.25279E-04 14464   0.286E-01    0.829E-02
DAV:   5    -0.314025694661E+02    0.51008E-04   -0.18229E-04 12992   0.262E-01    0.124E-02
DAV:   6    -0.314025690258E+02    0.44028E-06   -0.15003E-05 13552   0.450E-02    0.310E-03
DAV:   7    -0.314025689306E+02    0.95199E-07   -0.10627E-06 13120   0.113E-02    0.177E-03
DAV:   8    -0.314025688866E+02    0.44025E-07   -0.13448E-07 12032   0.484E-03    0.527E-04
DAV:   9    -0.314025688497E+02    0.36889E-07   -0.11732E-08  6224   0.179E-03    0.244E-04
DAV:  10    -0.314025688396E+02    0.10101E-07   -0.24891E-09  5808   0.763E-04    0.237E-05
DAV:  11    -0.314025688381E+02    0.15298E-08   -0.90094E-10  5664   0.225E-04
   9 F= -.31402569E+02 E0= -.31402339E+02  d E =-.450570E-03  mag=    -0.0000
       N       E                     dE             d eps       ncg     rms          rms(c)
DAV:   1    -0.314123867063E+02   -0.98179E-02   -0.12444E-01 12176   0.784E+00    0.115E+00
DAV:   2    -0.314398335399E+02   -0.27447E-01   -0.25145E-01 12272   0.583E+00    0.183E+00
DAV:   3    -0.314030115140E+02    0.36822E-01   -0.10843E-01 12096   0.410E+00    0.261E-01
DAV:   4    -0.314029227901E+02    0.88724E-04   -0.44379E-03 14688   0.957E-01    0.177E-01
DAV:   5    -0.314026378982E+02    0.28489E-03   -0.61633E-04 12880   0.385E-01    0.378E-02
DAV:   6    -0.314026294761E+02    0.84222E-05   -0.57889E-05 13520   0.784E-02    0.915E-03
DAV:   7    -0.314026294611E+02    0.14939E-07   -0.88431E-06 12272   0.299E-02    0.659E-03
DAV:   8    -0.314026292217E+02    0.23947E-06   -0.22457E-06 12528   0.179E-02    0.169E-03
DAV:   9    -0.314026293543E+02   -0.13259E-06   -0.13830E-07 12320   0.471E-03    0.440E-04
DAV:  10    -0.314026293773E+02   -0.22999E-07   -0.62413E-09  6656   0.133E-03    0.724E-05
DAV:  11    -0.314026293896E+02   -0.12373E-07   -0.16615E-09  6112   0.343E-04    0.263E-05
DAV:  12    -0.314026293908E+02   -0.11405E-08   -0.42760E-10  5824   0.172E-04
  10 F= -.31402629E+02 E0= -.31402376E+02  d E =-.605527E-04  mag=     0.0000
       N       E                     dE             d eps       ncg     rms          rms(c)
DAV:   1    -0.314037169837E+02   -0.10876E-02   -0.13849E-02 12176   0.262E+00    0.376E-01
DAV:   2    -0.314065861415E+02   -0.28692E-02   -0.26596E-02 12240   0.191E+00    0.595E-01
DAV:   3    -0.314026937256E+02    0.38924E-02   -0.11618E-02 12112   0.134E+00    0.841E-02
DAV:   4    -0.314026873398E+02    0.63858E-05   -0.44719E-04 15392   0.308E-01    0.621E-02
DAV:   5    -0.314026507900E+02    0.36550E-04   -0.81744E-05 12736   0.138E-01    0.111E-02
DAV:   6    -0.314026495097E+02    0.12803E-05   -0.66560E-06 13472   0.281E-02    0.313E-03
DAV:   7    -0.314026492053E+02    0.30442E-06   -0.13522E-06 12464   0.118E-02    0.281E-03
DAV:   8    -0.314026490992E+02    0.10610E-06   -0.35393E-07 12464   0.696E-03    0.532E-04
DAV:   9    -0.314026490423E+02    0.56860E-07   -0.16154E-08  6560   0.159E-03    0.164E-04
DAV:  10    -0.314026490337E+02    0.85893E-08   -0.26413E-09  6128   0.625E-04
  11 F= -.31402649E+02 E0= -.31402404E+02  d E =-.801957E-04  mag=    -0.0000
       N       E                     dE             d eps       ncg     rms          rms(c)
DAV:   1    -0.314024509375E+02    0.19810E-03   -0.64174E-03 15216   0.257E+00    0.742E-02
DAV:   2    -0.314027478983E+02   -0.29696E-03   -0.31813E-03 12144   0.475E-01    0.882E-02
DAV:   3    -0.314026706196E+02    0.77279E-04   -0.33690E-04 12176   0.227E-01    0.278E-02
DAV:   4    -0.314026651844E+02    0.54351E-05   -0.31165E-05 16512   0.938E-02    0.250E-02
DAV:   5    -0.314026616273E+02    0.35571E-05   -0.27532E-05 13072   0.103E-01    0.147E-02
DAV:   6    -0.314026597555E+02    0.18718E-05   -0.53438E-06 14592   0.419E-02    0.143E-03
DAV:   7    -0.314026597541E+02    0.14534E-08   -0.64881E-07 12464   0.686E-03    0.806E-04
DAV:   8    -0.314026597518E+02    0.22465E-08   -0.23665E-08  8256   0.227E-03
  12 F= -.31402660E+02 E0= -.31402412E+02  d E =-.107181E-04  mag=    -0.0000
       N       E                     dE             d eps       ncg     rms          rms(c)
DAV:   1    -0.314026312383E+02    0.28516E-04   -0.90764E-04 15216   0.967E-01    0.279E-02
DAV:   2    -0.314026736615E+02   -0.42423E-04   -0.44963E-04 12128   0.179E-01    0.331E-02
DAV:   3    -0.314026624642E+02    0.11197E-04   -0.47526E-05 12160   0.852E-02    0.104E-02
DAV:   4    -0.314026615398E+02    0.92442E-06   -0.40459E-06 16576   0.327E-02    0.859E-03
DAV:   5    -0.314026611810E+02    0.35880E-06   -0.37823E-06 13104   0.383E-02    0.607E-03
DAV:   6    -0.314026608353E+02    0.34574E-06   -0.84259E-07 13632   0.173E-02    0.533E-04
DAV:   7    -0.314026608266E+02    0.87075E-08   -0.10216E-07 11472   0.259E-03    0.321E-04
DAV:   8    -0.314026608260E+02    0.60936E-09   -0.33068E-09  5680   0.877E-04
  13 F= -.31402661E+02 E0= -.31402412E+02  d E =-.117922E-04  mag=     0.0000
