   8   8   0   0
  0.1262024E+02  0.5226659E-09  0.5226659E-09  0.5226659E-09  0.5000000E-15
  1.000000000000000E-004
  CAR 
 unknown system                          
     22.58558153    -58.44686442  301      8.58923436      1.00000000
    -58.447  0.0000E+00  0.0000E+00  0.0000E+00  0.0000E+00
    -58.177  0.0000E+00  0.0000E+00  0.0000E+00  0.0000E+00
    -57.907  0.0000E+00  0.0000E+00  0.0000E+00  0.0000E+00
    -57.637  0.0000E+00  0.0000E+00  0.0000E+00  0.0000E+00
    -57.366  0.0000E+00  0.0000E+00  0.0000E+00  0.0000E+00
    -57.096  0.0000E+00  0.0000E+00  0.0000E+00  0.0000E+00
    -56.826  0.0000E+00  0.0000E+00  0.0000E+00  0.0000E+00
    -56.556  0.0000E+00  0.0000E+00  0.0000E+00  0.0000E+00
    -56.286  0.0000E+00  0.0000E+00  0.0000E+00  0.0000E+00
    -56.016  0.0000E+00  0.0000E+00  0.0000E+00  0.0000E+00
    -55.746  0.0000E+00  0.0000E+00  0.0000E+00  0.0000E+00
    -55.476  0.0000E+00  0.0000E+00  0.0000E+00  0.0000E+00
    -55.206  0.0000E+00  0.0000E+00  0.0000E+00  0.0000E+00
    -54.935  0.0000E+00  0.0000E+00  0.0000E+00  0.0000E+00
    -54.665  0.0000E+00  0.0000E+00  0.8000E+01  0.8000E+01
    -54.395  0.0000E+00  0.0000E+00  0.1200E+02  0.1200E+02
    -54.125  0.0000E+00  0.0000E+00  0.1200E+02  0.1200E+02
    -53.855  0.0000E+00  0.0000E+00  0.1200E+02  0.1200E+02
    -53.585  0.0000E+00  0.0000E+00  0.1200E+02  0.1200E+02
    -53.315  0.0000E+00  0.0000E+00  0.1200E+02  0.1200E+02
    -53.045  0.0000E+00  0.0000E+00  0.1200E+02  0.1200E+02
    -52.775  0.0000E+00  0.0000E+00  0.1200E+02  0.1200E+02
    -52.504  0.0000E+00  0.0000E+00  0.1200E+02  0.1200E+02
    -52.234  0.0000E+00  0.0000E+00  0.1200E+02  0.1200E+02
    -51.964  0.0000E+00  0.0000E+00  0.1200E+02  0.1200E+02
    -51.694  0.0000E+00  0.0000E+00  0.1200E+02  0.1200E+02
    -51.424  0.0000E+00  0.0000E+00  0.1200E+02  0.1200E+02
    -51.154  0.0000E+00  0.0000E+00  0.1200E+02  0.1200E+02
    -50.884  0.0000E+00  0.0000E+00  0.1200E+02  0.1200E+02
    -50.614  0.0000E+00  0.0000E+00  0.1200E+02  0.1200E+02
    -50.344  0.0000E+00  0.0000E+00  0.1200E+02  0.1200E+02
    -50.074  0.0000E+00  0.0000E+00  0.1200E+02  0.1200E+02
    -49.803  0.0000E+00  0.0000E+00  0.1200E+02  0.1200E+02
    -49.533  0.0000E+00  0.0000E+00  0.1200E+02  0.1200E+02
    -49.263  0.0000E+00  0.0000E+00  0.1200E+02  0.1200E+02
    -48.993  0.0000E+00  0.0000E+00  0.1200E+02  0.1200E+02
    -48.723  0.0000E+00  0.0000E+00  0.1200E+02  0.1200E+02
    -48.453  0.0000E+00  0.0000E+00  0.1200E+02  0.1200E+02
    -48.183  0.0000E+00  0.0000E+00  0.1200E+02  0.1200E+02
    -47.913  0.0000E+00  0.0000E+00  0.1200E+02  0.1200E+02
    -47.643  0.0000E+00  0.0000E+00  0.1200E+02  0.1200E+02
    -47.372  0.0000E+00  0.0000E+00  0.1200E+02  0.1200E+02
    -47.102  0.0000E+00  0.0000E+00  0.1200E+02  0.1200E+02
    -46.832  0.0000E+00  0.0000E+00  0.1200E+02  0.1200E+02
    -46.562  0.0000E+00  0.0000E+00  0.1200E+02  0.1200E+02
    -46.292  0.0000E+00  0.0000E+00  0.1200E+02  0.1200E+02
    -46.022  0.0000E+00  0.0000E+00  0.1200E+02  0.1200E+02
    -45.752  0.0000E+00  0.0000E+00  0.1200E+02  0.1200E+02
    -45.482  0.0000E+00  0.0000E+00  0.1200E+02  0.1200E+02
    -45.212  0.0000E+00  0.0000E+00  0.1200E+02  0.1200E+02
    -44.941  0.0000E+00  0.0000E+00  0.1200E+02  0.1200E+02
    -44.671  0.0000E+00  0.0000E+00  0.1200E+02  0.1200E+02
    -44.401  0.0000E+00  0.0000E+00  0.1200E+02  0.1200E+02
    -44.131  0.0000E+00  0.0000E+00  0.1200E+02  0.1200E+02
    -43.861  0.0000E+00  0.0000E+00  0.1200E+02  0.1200E+02
    -43.591  0.0000E+00  0.0000E+00  0.1200E+02  0.1200E+02
    -43.321  0.0000E+00  0.0000E+00  0.1200E+02  0.1200E+02
    -43.051  0.0000E+00  0.0000E+00  0.1200E+02  0.1200E+02
    -42.781  0.0000E+00  0.0000E+00  0.1200E+02  0.1200E+02
    -42.510  0.0000E+00  0.0000E+00  0.1200E+02  0.1200E+02
    -42.240  0.0000E+00  0.0000E+00  0.1200E+02  0.1200E+02
    -41.970  0.0000E+00  0.0000E+00  0.1200E+02  0.1200E+02
    -41.700  0.0000E+00  0.0000E+00  0.1200E+02  0.1200E+02
    -41.430  0.0000E+00  0.0000E+00  0.1200E+02  0.1200E+02
    -41.160  0.0000E+00  0.0000E+00  0.1200E+02  0.1200E+02
    -40.890  0.0000E+00  0.0000E+00  0.1200E+02  0.1200E+02
    -40.620  0.0000E+00  0.0000E+00  0.1200E+02  0.1200E+02
    -40.350  0.0000E+00  0.0000E+00  0.1200E+02  0.1200E+02
    -40.080  0.0000E+00  0.0000E+00  0.1200E+02  0.1200E+02
    -39.809  0.0000E+00  0.0000E+00  0.1200E+02  0.1200E+02
    -39.539  0.0000E+00  0.0000E+00  0.1200E+02  0.1200E+02
    -39.269  0.0000E+00  0.0000E+00  0.1200E+02  0.1200E+02
    -38.999  0.0000E+00  0.0000E+00  0.1200E+02  0.1200E+02
    -38.729  0.0000E+00  0.0000E+00  0.1200E+02  0.1200E+02
    -38.459  0.0000E+00  0.0000E+00  0.1200E+02  0.1200E+02
    -38.189  0.0000E+00  0.0000E+00  0.1200E+02  0.1200E+02
    -37.919  0.0000E+00  0.0000E+00  0.1200E+02  0.1200E+02
    -37.649  0.0000E+00  0.0000E+00  0.1200E+02  0.1200E+02
    -37.378  0.0000E+00  0.0000E+00  0.1200E+02  0.1200E+02
    -37.108  0.0000E+00  0.0000E+00  0.1200E+02  0.1200E+02
    -36.838  0.0000E+00  0.0000E+00  0.1200E+02  0.1200E+02
    -36.568  0.0000E+00  0.0000E+00  0.1200E+02  0.1200E+02
    -36.298  0.0000E+00  0.0000E+00  0.1200E+02  0.1200E+02
    -36.028  0.0000E+00  0.0000E+00  0.1200E+02  0.1200E+02
    -35.758  0.0000E+00  0.0000E+00  0.1200E+02  0.1200E+02
    -35.488  0.0000E+00  0.0000E+00  0.1200E+02  0.1200E+02
    -35.218  0.0000E+00  0.0000E+00  0.1200E+02  0.1200E+02
    -34.947  0.0000E+00  0.0000E+00  0.1200E+02  0.1200E+02
    -34.677  0.0000E+00  0.0000E+00  0.1200E+02  0.1200E+02
    -34.407  0.0000E+00  0.0000E+00  0.1200E+02  0.1200E+02
    -34.137  0.0000E+00  0.0000E+00  0.1200E+02  0.1200E+02
    -33.867  0.0000E+00  0.0000E+00  0.1200E+02  0.1200E+02
    -33.597  0.0000E+00  0.0000E+00  0.1200E+02  0.1200E+02
    -33.327  0.0000E+00  0.0000E+00  0.1200E+02  0.1200E+02
    -33.057  0.0000E+00  0.0000E+00  0.1200E+02  0.1200E+02
    -32.787  0.0000E+00  0.0000E+00  0.1200E+02  0.1200E+02
    -32.516  0.0000E+00  0.0000E+00  0.1200E+02  0.1200E+02
    -32.246  0.0000E+00  0.0000E+00  0.1200E+02  0.1200E+02
    -31.976  0.0000E+00  0.0000E+00  0.1200E+02  0.1200E+02
    -31.706  0.0000E+00  0.0000E+00  0.1200E+02  0.1200E+02
    -31.436  0.0000E+00  0.0000E+00  0.1200E+02  0.1200E+02
    -31.166  0.0000E+00  0.0000E+00  0.1200E+02  0.1200E+02
    -30.896  0.0000E+00  0.0000E+00  0.1200E+02  0.1200E+02
    -30.626  0.0000E+00  0.0000E+00  0.1200E+02  0.1200E+02
    -30.356  0.0000E+00  0.0000E+00  0.1200E+02  0.1200E+02
    -30.086  0.0000E+00  0.0000E+00  0.1200E+02  0.1200E+02
    -29.815  0.0000E+00  0.0000E+00  0.1200E+02  0.1200E+02
    -29.545  0.0000E+00  0.0000E+00  0.1200E+02  0.1200E+02
    -29.275  0.0000E+00  0.0000E+00  0.1200E+02  0.1200E+02
    -29.005  0.0000E+00  0.0000E+00  0.1200E+02  0.1200E+02
    -28.735  0.0000E+00  0.0000E+00  0.1200E+02  0.1200E+02
    -28.465  0.0000E+00  0.0000E+00  0.1200E+02  0.1200E+02
    -28.195  0.0000E+00  0.0000E+00  0.1200E+02  0.1200E+02
    -27.925  0.0000E+00  0.0000E+00  0.1200E+02  0.1200E+02
    -27.655  0.0000E+00  0.0000E+00  0.1200E+02  0.1200E+02
    -27.384  0.0000E+00  0.0000E+00  0.1200E+02  0.1200E+02
    -27.114  0.0000E+00  0.0000E+00  0.1200E+02  0.1200E+02
    -26.844  0.0000E+00  0.0000E+00  0.1200E+02  0.1200E+02
    -26.574  0.0000E+00  0.0000E+00  0.1200E+02  0.1200E+02
    -26.304  0.0000E+00  0.0000E+00  0.1200E+02  0.1200E+02
    -26.034  0.0000E+00  0.0000E+00  0.1200E+02  0.1200E+02
    -25.764  0.0000E+00  0.0000E+00  0.1200E+02  0.1200E+02
    -25.494  0.0000E+00  0.0000E+00  0.1200E+02  0.1200E+02
    -25.224  0.0000E+00  0.0000E+00  0.1200E+02  0.1200E+02
    -24.953  0.0000E+00  0.0000E+00  0.1200E+02  0.1200E+02
    -24.683  0.0000E+00  0.0000E+00  0.1200E+02  0.1200E+02
    -24.413  0.0000E+00  0.0000E+00  0.1200E+02  0.1200E+02
    -24.143  0.0000E+00  0.0000E+00  0.1200E+02  0.1200E+02
    -23.873  0.0000E+00  0.0000E+00  0.1200E+02  0.1200E+02
    -23.603  0.0000E+00  0.0000E+00  0.1200E+02  0.1200E+02
    -23.333  0.0000E+00  0.0000E+00  0.1200E+02  0.1200E+02
    -23.063  0.0000E+00  0.0000E+00  0.1200E+02  0.1200E+02
    -22.793  0.0000E+00  0.0000E+00  0.1200E+02  0.1200E+02
    -22.522  0.0000E+00  0.0000E+00  0.1200E+02  0.1200E+02
    -22.252  0.0000E+00  0.0000E+00  0.1200E+02  0.1200E+02
    -21.982  0.0000E+00  0.0000E+00  0.1200E+02  0.1200E+02
    -21.712  0.0000E+00  0.0000E+00  0.1200E+02  0.1200E+02
    -21.442  0.0000E+00  0.0000E+00  0.1200E+02  0.1200E+02
    -21.172  0.0000E+00  0.0000E+00  0.1200E+02  0.1200E+02
    -20.902  0.0000E+00  0.0000E+00  0.1200E+02  0.1200E+02
    -20.632  0.0000E+00  0.0000E+00  0.1200E+02  0.1200E+02
    -20.362  0.0000E+00  0.0000E+00  0.1200E+02  0.1200E+02
    -20.092  0.0000E+00  0.0000E+00  0.1200E+02  0.1200E+02
    -19.821  0.0000E+00  0.0000E+00  0.1200E+02  0.1200E+02
    -19.551  0.0000E+00  0.0000E+00  0.1200E+02  0.1200E+02
    -19.281  0.0000E+00  0.0000E+00  0.1200E+02  0.1200E+02
    -19.011  0.0000E+00  0.0000E+00  0.1200E+02  0.1200E+02
    -18.741  0.0000E+00  0.0000E+00  0.1200E+02  0.1200E+02
    -18.471  0.0000E+00  0.0000E+00  0.1200E+02  0.1200E+02
    -18.201  0.0000E+00  0.0000E+00  0.1200E+02  0.1200E+02
    -17.931  0.0000E+00  0.0000E+00  0.1200E+02  0.1200E+02
    -17.661  0.0000E+00  0.0000E+00  0.1200E+02  0.1200E+02
    -17.390  0.0000E+00  0.0000E+00  0.1200E+02  0.1200E+02
    -17.120  0.0000E+00  0.0000E+00  0.1200E+02  0.1200E+02
    -16.850  0.0000E+00  0.0000E+00  0.1200E+02  0.1200E+02
    -16.580  0.0000E+00  0.0000E+00  0.1200E+02  0.1200E+02
    -16.310  0.0000E+00  0.0000E+00  0.1200E+02  0.1200E+02
    -16.040  0.0000E+00  0.0000E+00  0.1200E+02  0.1200E+02
    -15.770  0.0000E+00  0.0000E+00  0.1200E+02  0.1200E+02
    -15.500  0.0000E+00  0.0000E+00  0.1200E+02  0.1200E+02
    -15.230  0.0000E+00  0.0000E+00  0.1200E+02  0.1200E+02
    -14.959  0.0000E+00  0.0000E+00  0.1200E+02  0.1200E+02
    -14.689  0.0000E+00  0.0000E+00  0.1200E+02  0.1200E+02
    -14.419  0.0000E+00  0.0000E+00  0.1200E+02  0.1200E+02
    -14.149  0.0000E+00  0.0000E+00  0.1200E+02  0.1200E+02
    -13.879  0.0000E+00  0.0000E+00  0.1200E+02  0.1200E+02
    -13.609  0.0000E+00  0.0000E+00  0.1200E+02  0.1200E+02
    -13.339  0.0000E+00  0.0000E+00  0.1200E+02  0.1200E+02
    -13.069  0.0000E+00  0.0000E+00  0.1200E+02  0.1200E+02
    -12.799  0.0000E+00  0.0000E+00  0.1200E+02  0.1200E+02
    -12.528  0.0000E+00  0.0000E+00  0.1200E+02  0.1200E+02
    -12.258  0.0000E+00  0.0000E+00  0.1200E+02  0.1200E+02
    -11.988  0.0000E+00  0.0000E+00  0.1200E+02  0.1200E+02
    -11.718  0.0000E+00  0.0000E+00  0.1200E+02  0.1200E+02
    -11.448  0.0000E+00  0.0000E+00  0.1200E+02  0.1200E+02
    -11.178  0.0000E+00  0.0000E+00  0.1200E+02  0.1200E+02
    -10.908  0.0000E+00  0.0000E+00  0.1200E+02  0.1200E+02
    -10.638  0.0000E+00  0.0000E+00  0.1200E+02  0.1200E+02
    -10.368  0.0000E+00  0.0000E+00  0.1200E+02  0.1200E+02
    -10.098  0.0000E+00  0.0000E+00  0.1200E+02  0.1200E+02
     -9.827  0.0000E+00  0.0000E+00  0.1200E+02  0.1200E+02
     -9.557  0.0000E+00  0.0000E+00  0.1200E+02  0.1200E+02
     -9.287  0.0000E+00  0.0000E+00  0.1200E+02  0.1200E+02
     -9.017  0.0000E+00  0.0000E+00  0.1200E+02  0.1200E+02
     -8.747  0.0000E+00  0.0000E+00  0.1200E+02  0.1200E+02
     -8.477  0.0000E+00  0.0000E+00  0.1200E+02  0.1200E+02
     -8.207  0.0000E+00  0.0000E+00  0.1200E+02  0.1200E+02
     -7.937  0.0000E+00  0.0000E+00  0.1200E+02  0.1200E+02
     -7.667  0.0000E+00  0.0000E+00  0.1200E+02  0.1200E+02
     -7.396  0.0000E+00  0.0000E+00  0.1200E+02  0.1200E+02
     -7.126  0.0000E+00  0.0000E+00  0.1200E+02  0.1200E+02
     -6.856  0.0000E+00  0.0000E+00  0.1200E+02  0.1200E+02
     -6.586  0.0000E+00  0.0000E+00  0.1200E+02  0.1200E+02
     -6.316  0.0000E+00  0.0000E+00  0.1200E+02  0.1200E+02
     -6.046  0.0000E+00  0.0000E+00  0.1200E+02  0.1200E+02
     -5.776  0.0000E+00  0.0000E+00  0.1200E+02  0.1200E+02
     -5.506  0.0000E+00  0.0000E+00  0.1200E+02  0.1200E+02
     -5.236  0.0000E+00  0.0000E+00  0.1200E+02  0.1200E+02
     -4.965  0.0000E+00  0.0000E+00  0.1200E+02  0.1200E+02
     -4.695  0.0000E+00  0.0000E+00  0.1200E+02  0.1200E+02
     -4.425  0.0000E+00  0.0000E+00  0.1200E+02  0.1200E+02
     -4.155  0.0000E+00  0.0000E+00  0.1200E+02  0.1200E+02
     -3.885  0.0000E+00  0.0000E+00  0.1200E+02  0.1200E+02
     -3.615  0.0000E+00  0.0000E+00  0.1200E+02  0.1200E+02
     -3.345  0.0000E+00  0.0000E+00  0.1200E+02  0.1200E+02
     -3.075  0.0000E+00  0.0000E+00  0.1200E+02  0.1200E+02
     -2.805  0.0000E+00  0.0000E+00  0.1200E+02  0.1200E+02
     -2.534  0.0000E+00  0.0000E+00  0.1200E+02  0.1200E+02
     -2.264  0.4456E-01  0.4456E-01  0.1200E+02  0.1200E+02
     -1.994  0.2021E+00  0.2021E+00  0.1204E+02  0.1204E+02
     -1.724  0.2918E+00  0.2918E+00  0.1211E+02  0.1211E+02
     -1.454  0.3923E+00  0.3923E+00  0.1220E+02  0.1220E+02
     -1.184  0.5286E+00  0.5286E+00  0.1232E+02  0.1232E+02
     -0.914  0.7209E+00  0.7209E+00  0.1250E+02  0.1250E+02
     -0.644  0.7234E+00  0.7234E+00  0.1269E+02  0.1269E+02
     -0.374  0.6217E+00  0.6217E+00  0.1290E+02  0.1290E+02
     -0.104  0.1218E+00  0.1218E+00  0.1299E+02  0.1299E+02
      0.167  0.0000E+00  0.0000E+00  0.1300E+02  0.1300E+02
      0.437  0.9462E+00  0.9462E+00  0.1306E+02  0.1306E+02
      0.707  0.1042E+01  0.1042E+01  0.1341E+02  0.1341E+02
      0.977  0.5612E+00  0.5612E+00  0.1360E+02  0.1360E+02
      1.247  0.3704E+00  0.3704E+00  0.1373E+02  0.1373E+02
      1.517  0.2360E+00  0.2360E+00  0.1381E+02  0.1381E+02
      1.787  0.2085E+01  0.2085E+01  0.1392E+02  0.1392E+02
      2.057  0.9661E+00  0.9661E+00  0.1418E+02  0.1418E+02
      2.327  0.8357E+00  0.8357E+00  0.1442E+02  0.1442E+02
      2.598  0.8309E+00  0.8309E+00  0.1465E+02  0.1465E+02
      2.868  0.9753E+00  0.9753E+00  0.1489E+02  0.1489E+02
      3.138  0.9200E+00  0.9200E+00  0.1518E+02  0.1518E+02
      3.408  0.9682E+00  0.9682E+00  0.1543E+02  0.1543E+02
      3.678  0.1115E+01  0.1115E+01  0.1568E+02  0.1568E+02
      3.948  0.2549E+01  0.2549E+01  0.1609E+02  0.1609E+02
      4.218  0.1001E+01  0.1001E+01  0.1687E+02  0.1687E+02
      4.488  0.4860E+00  0.4860E+00  0.1705E+02  0.1705E+02
      4.758  0.1374E+01  0.1374E+01  0.1721E+02  0.1721E+02
      5.029  0.1984E+01  0.1984E+01  0.1793E+02  0.1793E+02
      5.299  0.3618E+01  0.3618E+01  0.1875E+02  0.1875E+02
      5.569  0.5706E+01  0.5706E+01  0.1980E+02  0.1980E+02
      5.839  0.3848E+01  0.3848E+01  0.2131E+02  0.2131E+02
      6.109  0.4774E+01  0.4774E+01  0.2210E+02  0.2210E+02
      6.379  0.1319E+02  0.1319E+02  0.2440E+02  0.2440E+02
      6.649  0.1332E+02  0.1332E+02  0.2677E+02  0.2677E+02
      6.919  0.3096E+01  0.3096E+01  0.2824E+02  0.2824E+02
      7.189  0.5331E+01  0.5331E+01  0.2961E+02  0.2961E+02
      7.460  0.9835E+01  0.9835E+01  0.3197E+02  0.3197E+02
      7.730  0.6250E+01  0.6250E+01  0.3497E+02  0.3497E+02
      8.000  0.1393E+01  0.1393E+01  0.3618E+02  0.3618E+02
      8.270  0.1708E+01  0.1708E+01  0.3667E+02  0.3667E+02
      8.540  0.3117E+01  0.3117E+01  0.3783E+02  0.3783E+02
      8.810  0.1685E+01  0.1685E+01  0.3839E+02  0.3839E+02
      9.080  0.2002E+01  0.2002E+01  0.3887E+02  0.3887E+02
      9.350  0.1915E+01  0.1915E+01  0.3939E+02  0.3939E+02
      9.620  0.1097E+01  0.1097E+01  0.3981E+02  0.3981E+02
      9.890  0.1409E+01  0.1409E+01  0.4014E+02  0.4014E+02
     10.161  0.1219E+01  0.1219E+01  0.4050E+02  0.4050E+02
     10.431  0.1215E+01  0.1215E+01  0.4086E+02  0.4086E+02
     10.701  0.7064E+00  0.7064E+00  0.4116E+02  0.4116E+02
     10.971  0.1211E+01  0.1211E+01  0.4138E+02  0.4138E+02
     11.241  0.2837E+01  0.2837E+01  0.4200E+02  0.4200E+02
     11.511  0.1283E+01  0.1283E+01  0.4245E+02  0.4245E+02
     11.781  0.8372E+00  0.8372E+00  0.4274E+02  0.4274E+02
     12.051  0.6192E+00  0.6192E+00  0.4292E+02  0.4292E+02
     12.321  0.6590E+00  0.6590E+00  0.4309E+02  0.4309E+02
     12.592  0.1371E+01  0.1371E+01  0.4337E+02  0.4337E+02
     12.862  0.2367E+01  0.2367E+01  0.4388E+02  0.4388E+02
     13.132  0.2105E+01  0.2105E+01  0.4454E+02  0.4454E+02
     13.402  0.2668E+01  0.2668E+01  0.4516E+02  0.4516E+02
     13.672  0.1564E+01  0.1564E+01  0.4559E+02  0.4559E+02
     13.942  0.1091E+01  0.1091E+01  0.4596E+02  0.4596E+02
     14.212  0.7255E+00  0.7255E+00  0.4617E+02  0.4617E+02
     14.482  0.9443E+00  0.9443E+00  0.4640E+02  0.4640E+02
     14.752  0.1139E+01  0.1139E+01  0.4667E+02  0.4667E+02
     15.023  0.1238E+01  0.1238E+01  0.4699E+02  0.4699E+02
     15.293  0.1904E+01  0.1904E+01  0.4739E+02  0.4739E+02
     15.563  0.1841E+01  0.1841E+01  0.4809E+02  0.4809E+02
     15.833  0.1811E+01  0.1811E+01  0.4852E+02  0.4852E+02
     16.103  0.1744E+01  0.1744E+01  0.4903E+02  0.4903E+02
     16.373  0.1310E+01  0.1310E+01  0.4947E+02  0.4947E+02
     16.643  0.1733E+01  0.1733E+01  0.4987E+02  0.4987E+02
     16.913  0.1618E+01  0.1618E+01  0.5038E+02  0.5038E+02
     17.183  0.2147E+01  0.2147E+01  0.5082E+02  0.5082E+02
     17.454  0.1658E+01  0.1658E+01  0.5132E+02  0.5132E+02
     17.724  0.6744E+00  0.6744E+00  0.5162E+02  0.5162E+02
     17.994  0.4165E+00  0.4165E+00  0.5175E+02  0.5175E+02
     18.264  0.3191E+00  0.3191E+00  0.5185E+02  0.5185E+02
     18.534  0.2286E+00  0.2286E+00  0.5192E+02  0.5192E+02
     18.804  0.3027E+00  0.3027E+00  0.5198E+02  0.5198E+02
     19.074  0.0000E+00  0.0000E+00  0.5200E+02  0.5200E+02
     19.344  0.0000E+00  0.0000E+00  0.5200E+02  0.5200E+02
     19.614  0.0000E+00  0.0000E+00  0.5200E+02  0.5200E+02
     19.884  0.0000E+00  0.0000E+00  0.5200E+02  0.5200E+02
     20.155  0.0000E+00  0.0000E+00  0.5200E+02  0.5200E+02
     20.425  0.0000E+00  0.0000E+00  0.5200E+02  0.5200E+02
     20.695  0.0000E+00  0.0000E+00  0.5200E+02  0.5200E+02
     20.965  0.0000E+00  0.0000E+00  0.5200E+02  0.5200E+02
     21.235  0.0000E+00  0.0000E+00  0.5200E+02  0.5200E+02
     21.505  0.0000E+00  0.0000E+00  0.5200E+02  0.5200E+02
     21.775  0.0000E+00  0.0000E+00  0.5200E+02  0.5200E+02
     22.045  0.0000E+00  0.0000E+00  0.5200E+02  0.5200E+02
     22.315  0.0000E+00  0.0000E+00  0.5200E+02  0.5200E+02
     22.586  0.0000E+00  0.0000E+00  0.5200E+02  0.5200E+02
