<?xml version="1.0" encoding="ISO-8859-1"?>
<modeling>
 <generator>
  <i name="program" type="string">vasp </i>
  <i name="version" type="string">5.4.4.18Apr17-6-g9f103f2a35  </i>
  <i name="subversion" type="string">(build Jan 03 2018 06:08:52) complex            parallel </i>
  <i name="platform" type="string">LinuxIFC </i>
  <i name="date" type="string">2023 05 06 </i>
  <i name="time" type="string">02:20:34 </i>
 </generator>
 <incar>
  <i type="string" name="PREC">high</i>
  <i type="int" name="ISPIN">     2</i>
  <i type="int" name="IBRION">    -1</i>
  <i name="EDIFF">      0.00000001</i>
  <i name="EDIFFG">      0.00001000</i>
  <i type="int" name="ISIF">     2</i>
  <i type="int" name="ISMEAR">    -5</i>
  <i name="SIGMA">      0.07000000</i>
  <v type="int" name="KPOINT_BSE">    -1     0     0     0</v>
 </incar>
 <structure name="primitive_cell" >
  <crystal>
   <varray name="basis" >
    <v>      -3.69580605       0.00000000      -3.69580605 </v>
    <v>       0.00000000      -3.69580605      -3.69580605 </v>
    <v>      -3.69580605      -3.69580605       0.00000000 </v>
   </varray>
   <i name="volume">    100.96189897 </i>
   <varray name="rec_basis" >
    <v>      -0.13528848       0.13528848      -0.13528848 </v>
    <v>       0.13528848      -0.13528848      -0.13528848 </v>
    <v>      -0.13528848      -0.13528848       0.13528848 </v>
   </varray>
  </crystal>
  <varray name="positions" >
   <v>       0.00000000       0.00000000       0.00000000 </v>
   <v>       0.00000000      -0.50000000       0.00000000 </v>
   <v>      -0.50000000       0.00000000       0.00000000 </v>
   <v>       0.00000000       0.00000000      -0.50000000 </v>
   <v>      -0.50000000      -0.50000000       0.00000000 </v>
   <v>       0.00000000      -0.50000000      -0.50000000 </v>
   <v>      -0.50000000       0.00000000      -0.50000000 </v>
   <v>      -0.50000000      -0.50000000      -0.50000000 </v>
  </varray>
 </structure>
 <varray name="primitive_index" >
  <v type="int" >        1 </v>
  <v type="int" >        2 </v>
  <v type="int" >        3 </v>
  <v type="int" >        4 </v>
  <v type="int" >        5 </v>
  <v type="int" >        6 </v>
  <v type="int" >        7 </v>
  <v type="int" >        8 </v>
 </varray>
 <kpoints>
  <generation param="Gamma">
   <v type="int" name="divisions">       5        5        5 </v>
   <v name="usershift">      0.00000000       0.00000000       0.00000000 </v>
   <v name="genvec1">      0.20000000       0.00000000       0.00000000 </v>
   <v name="genvec2">      0.00000000       0.20000000       0.00000000 </v>
   <v name="genvec3">      0.00000000       0.00000000       0.20000000 </v>
   <v name="shift">      0.00000000       0.00000000       0.00000000 </v>
  </generation>
  <varray name="kpointlist" >
   <v>       0.00000000       0.00000000       0.00000000 </v>
   <v>       0.20000000       0.00000000       0.00000000 </v>
   <v>       0.40000000       0.00000000       0.00000000 </v>
   <v>       0.20000000       0.20000000       0.00000000 </v>
   <v>       0.40000000       0.20000000       0.00000000 </v>
   <v>      -0.40000000       0.20000000       0.00000000 </v>
   <v>      -0.20000000       0.20000000       0.00000000 </v>
   <v>       0.40000000       0.40000000       0.00000000 </v>
   <v>      -0.40000000       0.40000000       0.00000000 </v>
   <v>      -0.40000000       0.40000000       0.20000000 </v>
  </varray>
  <varray name="weights" >
   <v>       0.00800000 </v>
   <v>       0.06400000 </v>
   <v>       0.06400000 </v>
   <v>       0.04800000 </v>
   <v>       0.19200000 </v>
   <v>       0.19200000 </v>
   <v>       0.09600000 </v>
   <v>       0.04800000 </v>
   <v>       0.09600000 </v>
   <v>       0.19200000 </v>
  </varray>
  <varray name="tetrahedronlist"  type="int" >
   <v type="int" >       24        1        2        2        4 </v>
   <v type="int" >       48        2        4        5        7 </v>
   <v type="int" >       48        2        3        5        7 </v>
   <v type="int" >       24        2        2        4        7 </v>
   <v type="int" >       48        3        5        6        6 </v>
   <v type="int" >       24        3        3        6        6 </v>
   <v type="int" >       48        3        5        6        7 </v>
   <v type="int" >       24        4        5        5        8 </v>
   <v type="int" >       24        4        5        5        7 </v>
   <v type="int" >       48        5        8        9       10 </v>
   <v type="int" >       48        5        6        9       10 </v>
   <v type="int" >       48        5        6        6       10 </v>
   <v type="int" >       24        5        5        8       10 </v>
   <v type="int" >       24        5        5        7       10 </v>
   <v type="int" >       48        5        6        7       10 </v>
   <v type="int" >       24        6        6        9       10 </v>
   <v type="int" >       24        6        6        7       10 </v>
   <v type="int" >       48        6        9       10       10 </v>
   <v type="int" >       24        6        6       10       10 </v>
   <v type="int" >       12        8        8        9        9 </v>
   <v type="int" >       24        8        9        9       10 </v>
   <v type="int" >       12        9        9       10       10 </v>
   <v type="int" >       24        9       10       10       10 </v>
   <v type="int" >        6       10       10       10       10 </v>
  </varray>
  <i name="volumeweight">      0.00133333 </i>
 </kpoints>
 <parameters>
  <separator name="general" >
   <i type="string" name="SYSTEM">unknown system</i>
   <i type="logical" name="LCOMPAT"> F  </i>
  </separator>
  <separator name="electronic" >
   <i type="string" name="PREC">high</i>
   <i name="ENMAX">    459.93125000</i>
   <i name="ENAUG">    703.44300000</i>
   <i name="EDIFF">      0.00000001</i>
   <i type="int" name="IALGO">    38</i>
   <i type="int" name="IWAVPR">    10</i>
   <i type="int" name="NBANDS">    52</i>
   <i name="NELECT">     76.00000000</i>
   <i type="int" name="TURBO">     0</i>
   <i type="int" name="IRESTART">     0</i>
   <i type="int" name="NREBOOT">     0</i>
   <i type="int" name="NMIN">     0</i>
   <i name="EREF">      0.00000000</i>
   <separator name="electronic smearing" >
    <i type="int" name="ISMEAR">    -5</i>
    <i name="SIGMA">      0.07000000</i>
    <i name="KSPACING">      0.50000000</i>
    <i type="logical" name="KGAMMA"> T  </i>
   </separator>
   <separator name="electronic projectors" >
    <i type="logical" name="LREAL"> F  </i>
    <v name="ROPT">      0.00000000      0.00000000</v>
    <i type="int" name="LMAXPAW">  -100</i>
    <i type="int" name="LMAXMIX">     2</i>
    <i type="logical" name="NLSPLINE"> F  </i>
   </separator>
   <separator name="electronic startup" >
    <i type="int" name="ISTART">     1</i>
    <i type="int" name="ICHARG">     0</i>
    <i type="int" name="INIWAV">     1</i>
   </separator>
   <separator name="electronic spin" >
    <i type="int" name="ISPIN">     2</i>
    <i type="logical" name="LNONCOLLINEAR"> F  </i>
    <v name="MAGMOM">      1.00000000      1.00000000      1.00000000      1.00000000      1.00000000      1.00000000      1.00000000      1.00000000</v>
    <i name="NUPDOWN">     -1.00000000</i>
    <i type="logical" name="LSORBIT"> F  </i>
    <v name="SAXIS">      0.00000000      0.00000000      1.00000000</v>
    <i type="logical" name="LSPIRAL"> F  </i>
    <v name="QSPIRAL">      0.00000000      0.00000000      0.00000000</v>
    <i type="logical" name="LZEROZ"> F  </i>
   </separator>
   <separator name="electronic exchange-correlation" >
    <i type="logical" name="LASPH"> F  </i>
    <i type="logical" name="LMETAGGA"> F  </i>
   </separator>
   <separator name="electronic convergence" >
    <i type="int" name="NELM">    60</i>
    <i type="int" name="NELMDL">     0</i>
    <i type="int" name="NELMIN">     2</i>
    <i name="ENINI">    459.93125000</i>
    <separator name="electronic convergence detail" >
     <i type="logical" name="LDIAG"> T  </i>
     <i type="logical" name="LSUBROT"> F  </i>
     <i name="WEIMIN">      0.00000000</i>
     <i name="EBREAK">      0.00000000</i>
     <i name="DEPER">      0.30000000</i>
     <i type="int" name="NRMM">     4</i>
     <i name="TIME">      0.40000000</i>
    </separator>
   </separator>
   <separator name="electronic mixer" >
    <i name="AMIX">      0.40000000</i>
    <i name="BMIX">      1.00000000</i>
    <i name="AMIN">      0.10000000</i>
    <i name="AMIX_MAG">      1.60000000</i>
    <i name="BMIX_MAG">      1.00000000</i>
    <separator name="electronic mixer details" >
     <i type="int" name="IMIX">     4</i>
     <i type="logical" name="MIXFIRST"> F  </i>
     <i type="int" name="MAXMIX">   -45</i>
     <i name="WC">    100.00000000</i>
     <i type="int" name="INIMIX">     1</i>
     <i type="int" name="MIXPRE">     1</i>
     <i type="int" name="MREMOVE">     5</i>
    </separator>
   </separator>
   <separator name="electronic dipolcorrection" >
    <i type="logical" name="LDIPOL"> F  </i>
    <i type="logical" name="LMONO"> F  </i>
    <i type="int" name="IDIPOL">     0</i>
    <i name="EPSILON">      1.00000000</i>
    <v name="DIPOL">   -100.00000000   -100.00000000   -100.00000000</v>
    <i name="EFIELD">      0.00000000</i>
   </separator>
  </separator>
  <separator name="grids" >
   <i type="int" name="NGX">    40</i>
   <i type="int" name="NGY">    40</i>
   <i type="int" name="NGZ">    40</i>
   <i type="int" name="NGXF">    60</i>
   <i type="int" name="NGYF">    60</i>
   <i type="int" name="NGZF">    60</i>
   <i type="logical" name="ADDGRID"> F  </i>
  </separator>
  <separator name="ionic" >
   <i type="int" name="NSW">     0</i>
   <i type="int" name="IBRION">    -1</i>
   <i type="int" name="MDALGO">     0</i>
   <i type="int" name="ISIF">     2</i>
   <i name="PSTRESS">      0.00000000</i>
   <i name="EDIFFG">      0.00001000</i>
   <i type="int" name="NFREE">     0</i>
   <i name="POTIM">      0.50000000</i>
   <i name="SMASS">     -3.00000000</i>
   <i name="SCALEE">      1.00000000</i>
  </separator>
  <separator name="ionic md" >
   <i name="TEBEG">      0.00010000</i>
   <i name="TEEND">      0.00010000</i>
   <i type="int" name="NBLOCK">     1</i>
   <i type="int" name="KBLOCK">     1</i>
   <i type="int" name="NPACO">   256</i>
   <i name="APACO">     16.00000000</i>
  </separator>
  <separator name="symmetry" >
   <i type="int" name="ISYM">     2</i>
   <i name="SYMPREC">      0.00001000</i>
  </separator>
  <separator name="dos" >
   <i type="int" name="LORBIT">     0</i>
   <v name="RWIGS">     -1.00000000     -1.00000000</v>
   <i type="int" name="NEDOS">   301</i>
   <i name="EMIN">     10.00000000</i>
   <i name="EMAX">    -10.00000000</i>
   <i name="EFERMI">      0.00000000</i>
  </separator>
  <separator name="writing" >
   <i type="int" name="NWRITE">     2</i>
   <i type="logical" name="LWAVE"> T  </i>
   <i type="logical" name="LDOWNSAMPLE"> F  </i>
   <i type="logical" name="LCHARG"> T  </i>
   <i type="logical" name="LPARD"> F  </i>
   <i type="logical" name="LVTOT"> F  </i>
   <i type="logical" name="LVHAR"> F  </i>
   <i type="logical" name="LELF"> F  </i>
   <i type="logical" name="LOPTICS"> F  </i>
   <v name="STM">      0.00000000      0.00000000      0.00000000      0.00000000      0.00000000      0.00000000      0.00000000</v>
  </separator>
  <separator name="performance" >
   <i type="int" name="NPAR">     4</i>
   <i type="int" name="NSIM">     4</i>
   <i type="int" name="NBLK">    -1</i>
   <i type="logical" name="LPLANE"> T  </i>
   <i type="logical" name="LSCALAPACK"> T  </i>
   <i type="logical" name="LSCAAWARE"> F  </i>
   <i type="logical" name="LSCALU"> F  </i>
   <i type="logical" name="LASYNC"> F  </i>
   <i type="logical" name="LORBITALREAL"> F  </i>
  </separator>
  <separator name="miscellaneous" >
   <i type="int" name="IDIOT">     3</i>
   <i type="int" name="ISPECIAL">     0</i>
   <i type="logical" name="LMUSIC"> F  </i>
   <v name="POMASS">     26.98200000     58.69000000</v>
   <v name="DARWINR">      0.00000000      0.00000000</v>
   <v name="DARWINV">      1.00000000      1.00000000</v>
   <i type="logical" name="LCORR"> T  </i>
  </separator>
  <i type="logical" name="GGA_COMPAT"> T  </i>
  <i type="logical" name="LBERRY"> F  </i>
  <i type="int" name="ICORELEVEL">     0</i>
  <i type="logical" name="LDAU"> F  </i>
  <i type="int" name="I_CONSTRAINED_M">     0</i>
  <separator name="electronic exchange-correlation" >
   <i type="string" name="GGA">--</i>
   <i type="int" name="VOSKOWN">     0</i>
   <i type="logical" name="LHFCALC"> F  </i>
   <i type="string" name="PRECFOCK"></i>
   <i type="logical" name="LSYMGRAD"> F  </i>
   <i type="logical" name="LHFONE"> F  </i>
   <i type="logical" name="LRHFCALC"> F  </i>
   <i type="logical" name="LTHOMAS"> F  </i>
   <i type="logical" name="LMODELHF"> F  </i>
   <i name="ENCUT4O">     -1.00000000</i>
   <i type="int" name="EXXOEP">     0</i>
   <i type="int" name="FOURORBIT">     0</i>
   <i name="AEXX">      0.00000000</i>
   <i name="HFALPHA">      0.00000000</i>
   <i name="MCALPHA">      0.00000000</i>
   <i name="ALDAX">      1.00000000</i>
   <i name="AGGAX">      1.00000000</i>
   <i name="ALDAC">      1.00000000</i>
   <i name="AGGAC">      1.00000000</i>
   <i type="int" name="NKREDX">     1</i>
   <i type="int" name="NKREDY">     1</i>
   <i type="int" name="NKREDZ">     1</i>
   <i type="logical" name="SHIFTRED"> F  </i>
   <i type="logical" name="ODDONLY"> F  </i>
   <i type="logical" name="EVENONLY"> F  </i>
   <i type="int" name="LMAXFOCK">     0</i>
   <i type="int" name="NMAXFOCKAE">     0</i>
   <i type="logical" name="LFOCKAEDFT"> F  </i>
   <i name="HFSCREEN">      0.00000000</i>
   <i name="HFSCREENC">      0.00000000</i>
   <i type="int" name="NBANDSGWLOW">     0</i>
  </separator>
  <separator name="vdW DFT" >
   <i type="logical" name="LUSE_VDW"> F  </i>
   <i name="Zab_VDW">     -0.84910000</i>
   <i name="PARAM1">      0.12340000</i>
   <i name="PARAM2">      1.00000000</i>
   <i name="PARAM3">      0.00000000</i>
  </separator>
  <separator name="model GW" >
   <i type="int" name="MODEL_GW">     0</i>
   <i name="MODEL_EPS0">      7.57214242</i>
   <i name="MODEL_ALPHA">      1.00000000</i>
  </separator>
  <separator name="linear response parameters" >
   <i type="logical" name="LEPSILON"> F  </i>
   <i type="logical" name="LRPA"> F  </i>
   <i type="logical" name="LNABLA"> F  </i>
   <i type="logical" name="LVEL"> F  </i>
   <i type="int" name="KINTER">     0</i>
   <i name="CSHIFT">      0.10000000</i>
   <i name="OMEGAMAX">     -1.00000000</i>
   <i name="DEG_THRESHOLD">      0.00200000</i>
   <i name="RTIME">     -0.10000000</i>
   <i name="WPLASMAI">      0.00000000</i>
   <v name="DFIELD">      0.00000000      0.00000000      0.00000000</v>
   <v name="WPLASMA">      0.00000000      0.00000000      0.00000000      0.00000000      0.00000000      0.00000000      0.00000000      0.00000000      0.00000000</v>
  </separator>
  <separator name="orbital magnetization" >
   <i type="logical" name="NUCIND"> F  </i>
   <v name="MAGPOS">      0.00000000      0.00000000      0.00000000</v>
   <i type="logical" name="LNICSALL"> T  </i>
   <i type="logical" name="ORBITALMAG"> F  </i>
   <i type="logical" name="LMAGBLOCH"> F  </i>
   <i type="logical" name="LCHIMAG"> F  </i>
   <i type="logical" name="LGAUGE"> T  </i>
   <i type="int" name="MAGATOM">     0</i>
   <v name="MAGDIPOL">      0.00000000      0.00000000      0.00000000</v>
   <v name="AVECCONST">      0.00000000      0.00000000      0.00000000</v>
  </separator>
  <separator name="response functions" >
   <i type="logical" name="LADDER"> F  </i>
   <i type="logical" name="LRPAFORCE"> F  </i>
   <i type="logical" name="LFXC"> F  </i>
   <i type="logical" name="LHARTREE"> T  </i>
   <i type="int" name="IBSE">     0</i>
   <v type="int" name="KPOINT">    -1     0     0     0</v>
   <i type="logical" name="LTCTE"> F  </i>
   <i type="logical" name="LTETE"> F  </i>
   <i type="logical" name="LTRIPLET"> F  </i>
   <i type="logical" name="LFXCEPS"> F  </i>
   <i type="logical" name="LFXHEG"> F  </i>
   <i type="int" name="NATURALO">     2</i>
   <i type="logical" name="L2ORDER"> F  </i>
   <i type="logical" name="LMP2LT"> F  </i>
   <i type="logical" name="LUSEW"> F  </i>
   <i name="ENCUTGW">     -2.00000000</i>
   <i name="ENCUTGWSOFT">     -2.00000000</i>
   <i name="ENCUTLF">     -1.00000000</i>
   <i type="int" name="LMAXMP2">    -1</i>
   <i name="SCISSOR">      0.00000000</i>
   <i type="int" name="NOMEGA">     0</i>
   <i type="int" name="NOMEGAR">     0</i>
   <i type="int" name="NBANDSGW">    -1</i>
   <i type="int" name="NBANDSO">    -1</i>
   <i type="int" name="NBANDSV">    -1</i>
   <i type="int" name="NELM">     1</i>
   <i type="int" name="NELMHF">     1</i>
   <i type="int" name="DIM">     3</i>
   <i type="int" name="ANTIRES">     0</i>
   <i name="OMEGAMAX">    -30.00000000</i>
   <i name="OMEGAMIN">    -30.00000000</i>
   <i name="OMEGATL">   -200.00000000</i>
   <i type="int" name="OMEGAGRID">   140</i>
   <i name="CSHIFT">     -0.10000000</i>
   <i type="logical" name="SELFENERGY"> F  </i>
   <i type="logical" name="LSPECTRAL"> F  </i>
   <i type="logical" name="LSPECTRALGW"> F  </i>
   <i type="logical" name="LSINGLES"> F  </i>
   <i type="logical" name="LFERMIGW"> F  </i>
   <i type="logical" name="ODDONLYGW"> F  </i>
   <i type="logical" name="EVENONLYGW"> F  </i>
   <i type="int" name="NKREDLFX">     1</i>
   <i type="int" name="NKREDLFY">     1</i>
   <i type="int" name="NKREDLFZ">     1</i>
   <i type="int" name="MAXMEM">  2800</i>
   <i type="int" name="TELESCOPE">     0</i>
   <i type="int" name="TAUPAR">     1</i>
   <i type="int" name="OMEGAPAR">    -1</i>
   <i name="LAMBDA">      1.00000000</i>
  </separator>
  <separator name="External order field" >
   <i name="OFIELD_KAPPA">      0.00000000</i>
   <v name="OFIELD_K">      0.00000000      0.00000000      0.00000000</v>
   <i name="OFIELD_Q6_NEAR">      0.00000000</i>
   <i name="OFIELD_Q6_FAR">      0.00000000</i>
   <i name="OFIELD_A">      0.00000000</i>
  </separator>
 </parameters>
 <atominfo>
  <atoms>       8 </atoms>
  <types>       2 </types>
  <array name="atoms" >
   <dimension dim="1">ion</dimension>
   <field type="string">element</field>
   <field type="int">atomtype</field>
   <set>
    <rc><c>Al</c><c>   1</c></rc>
    <rc><c>Al</c><c>   1</c></rc>
    <rc><c>Al</c><c>   1</c></rc>
    <rc><c>Al</c><c>   1</c></rc>
    <rc><c>Ni</c><c>   2</c></rc>
    <rc><c>Ni</c><c>   2</c></rc>
    <rc><c>Ni</c><c>   2</c></rc>
    <rc><c>Ni</c><c>   2</c></rc>
   </set>
  </array>
  <array name="atomtypes" >
   <dimension dim="1">type</dimension>
   <field type="int">atomspertype</field>
   <field type="string">element</field>
   <field>mass</field>
   <field>valence</field>
   <field type="string">pseudopotential</field>
   <set>
    <rc><c>   4</c><c>Al</c><c>     26.98200000</c><c>      3.00000000</c><c> PAW_PBE Al 04Jan2001                   </c></rc>
    <rc><c>   4</c><c>Ni</c><c>     58.69000000</c><c>     16.00000000</c><c> PAW_PBE Ni_pv 06Sep2000                </c></rc>
   </set>
  </array>
 </atominfo>
 <structure name="initialpos" >
  <crystal>
   <varray name="basis" >
    <v>      -3.69580605       0.00000000      -3.69580605 </v>
    <v>       0.00000000      -3.69580605      -3.69580605 </v>
    <v>      -3.69580605      -3.69580605       0.00000000 </v>
   </varray>
   <i name="volume">    100.96189897 </i>
   <varray name="rec_basis" >
    <v>      -0.13528848       0.13528848      -0.13528848 </v>
    <v>       0.13528848      -0.13528848      -0.13528848 </v>
    <v>      -0.13528848      -0.13528848       0.13528848 </v>
   </varray>
  </crystal>
  <varray name="positions" >
   <v>       0.00000000       0.00000000       0.00000000 </v>
   <v>       0.00000000       0.50000000       0.00000000 </v>
   <v>       0.50000000       0.00000000       0.00000000 </v>
   <v>       0.00000000       0.00000000       0.50000000 </v>
   <v>       0.50000000       0.50000000       0.00000000 </v>
   <v>       0.00000000       0.50000000       0.50000000 </v>
   <v>       0.50000000       0.00000000       0.50000000 </v>
   <v>       0.50000000       0.50000000       0.50000000 </v>
  </varray>
 </structure>
 <calculation>
  <scstep>
   <time name="dav">    0.36    0.36</time>
   <time name="total">    0.42    0.42</time>
   <energy>
    <i name="alphaZ">    313.65686806 </i>
    <i name="ewald">  -7599.53457392 </i>
    <i name="hartreedc">  -5775.27989102 </i>
    <i name="XCdc">    248.61296151 </i>
    <i name="pawpsdc">  10915.97020058 </i>
    <i name="pawaedc"> -11350.39126311 </i>
    <i name="eentropy">      0.00000000 </i>
    <i name="bandstr">  -1008.68161687 </i>
    <i name="atom">  14215.19392863 </i>
    <i name="e_fr_energy">    -40.45338614 </i>
    <i name="e_wo_entrp">    -40.45338614 </i>
    <i name="e_0_energy">    -40.45338614 </i>
   </energy>
  </scstep>
  <scstep>
   <time name="dav">    0.37    0.37</time>
   <time name="total">    0.42    0.43</time>
   <energy>
    <i name="e_fr_energy">    -40.45342782 </i>
    <i name="e_wo_entrp">    -40.45342782 </i>
    <i name="e_0_energy">    -40.45342782 </i>
   </energy>
  </scstep>
  <scstep>
   <time name="dav">    0.33    0.33</time>
   <time name="total">    0.37    0.37</time>
   <energy>
    <i name="e_fr_energy">    -40.45342590 </i>
    <i name="e_wo_entrp">    -40.45342590 </i>
    <i name="e_0_energy">    -40.45342590 </i>
   </energy>
  </scstep>
  <scstep>
   <time name="dav">    0.32    0.32</time>
   <time name="total">    0.36    0.37</time>
   <energy>
    <i name="e_fr_energy">    -40.45344155 </i>
    <i name="e_wo_entrp">    -40.45344155 </i>
    <i name="e_0_energy">    -40.45344155 </i>
   </energy>
  </scstep>
  <scstep>
   <time name="dav">    0.30    0.30</time>
   <time name="total">    0.34    0.34</time>
   <energy>
    <i name="e_fr_energy">    -40.45343799 </i>
    <i name="e_wo_entrp">    -40.45343799 </i>
    <i name="e_0_energy">    -40.45343799 </i>
   </energy>
  </scstep>
  <scstep>
   <time name="dav">    0.31    0.31</time>
   <time name="total">    0.35    0.35</time>
   <energy>
    <i name="e_fr_energy">    -40.45343778 </i>
    <i name="e_wo_entrp">    -40.45343778 </i>
    <i name="e_0_energy">    -40.45343778 </i>
   </energy>
  </scstep>
  <scstep>
   <time name="dav">    0.21    0.21</time>
   <time name="total">    0.26    0.26</time>
   <energy>
    <i name="e_fr_energy">    -40.45343809 </i>
    <i name="e_wo_entrp">    -40.45343809 </i>
    <i name="e_0_energy">    -40.45343809 </i>
   </energy>
  </scstep>
  <scstep>
   <time name="dav">    0.20    0.20</time>
   <time name="total">    0.25    0.25</time>
   <energy>
    <i name="e_fr_energy">    -40.45343805 </i>
    <i name="e_wo_entrp">    -40.45343805 </i>
    <i name="e_0_energy">    -40.45343805 </i>
   </energy>
  </scstep>
  <scstep>
   <time name="dav">    0.20    0.20</time>
   <time name="total">    0.25    0.25</time>
   <energy>
    <i name="e_fr_energy">    -40.45343803 </i>
    <i name="e_wo_entrp">    -40.45343803 </i>
    <i name="e_0_energy">    -40.45343803 </i>
   </energy>
  </scstep>
  <scstep>
   <time name="dav">    0.20    0.20</time>
   <time name="total">    0.22    0.22</time>
   <energy>
    <i name="alphaZ">    313.65686806 </i>
    <i name="ewald">  -7599.53457392 </i>
    <i name="hartreedc">  -5775.69370088 </i>
    <i name="XCdc">    248.62745670 </i>
    <i name="pawpsdc">  10920.00914964 </i>
    <i name="pawaedc"> -11354.07077526 </i>
    <i name="eentropy">      0.00000000 </i>
    <i name="bandstr">  -1008.64179098 </i>
    <i name="atom">  14215.19392863 </i>
    <i name="e_fr_energy">    -40.45343802 </i>
    <i name="e_wo_entrp">    -40.45343802 </i>
    <i name="e_0_energy">    -40.45343802 </i>
   </energy>
  </scstep>
  <structure>
   <crystal>
    <varray name="basis" >
     <v>      -3.69580605       0.00000000      -3.69580605 </v>
     <v>       0.00000000      -3.69580605      -3.69580605 </v>
     <v>      -3.69580605      -3.69580605       0.00000000 </v>
    </varray>
    <i name="volume">    100.96189897 </i>
    <varray name="rec_basis" >
     <v>      -0.13528848       0.13528848      -0.13528848 </v>
     <v>       0.13528848      -0.13528848      -0.13528848 </v>
     <v>      -0.13528848      -0.13528848       0.13528848 </v>
    </varray>
   </crystal>
   <varray name="positions" >
    <v>       0.00000000       0.00000000       0.00000000 </v>
    <v>       0.00000000       0.50000000       0.00000000 </v>
    <v>       0.50000000       0.00000000       0.00000000 </v>
    <v>       0.00000000       0.00000000       0.50000000 </v>
    <v>       0.50000000       0.50000000       0.00000000 </v>
    <v>       0.00000000       0.50000000       0.50000000 </v>
    <v>       0.50000000       0.00000000       0.50000000 </v>
    <v>       0.50000000       0.50000000       0.50000000 </v>
   </varray>
  </structure>
  <varray name="forces" >
   <v>      -0.00000000      -0.00000000       0.00000000 </v>
   <v>      -0.00000000      -0.00000000       0.00000000 </v>
   <v>      -0.00000000      -0.00000000       0.00000000 </v>
   <v>      -0.00000000      -0.00000000       0.00000000 </v>
   <v>      -0.00000000      -0.00000000       0.00000000 </v>
   <v>      -0.00000000       0.00000000      -0.00000000 </v>
   <v>       0.00000000       0.00000000       0.00000000 </v>
   <v>      -0.00000000      -0.00000000      -0.00000000 </v>
  </varray>
  <varray name="stress" >
   <v>      -0.82773912       0.00000000      -0.00000000 </v>
   <v>       0.00000000      -0.82773912       0.00000000 </v>
   <v>      -0.00000000       0.00000000      -0.82773912 </v>
  </varray>
  <energy>
   <i name="e_fr_energy">    -40.45343802 </i>
   <i name="e_wo_entrp">    -40.45343802 </i>
   <i name="e_0_energy">      0.00000000 </i>
  </energy>
  <time name="totalsc">    3.85    3.86</time>
  <eigenvalues>
   <array>
    <dimension dim="1">band</dimension>
    <dimension dim="2">kpoint</dimension>
    <dimension dim="3">spin</dimension>
    <field>eigene</field>
    <field>occ</field>
    <set>
     <set comment="spin 1">
      <set comment="kpoint 1">
       <r>  -54.7636    1.0000 </r>
       <r>  -54.7636    1.0000 </r>
       <r>  -54.7632    1.0000 </r>
       <r>  -54.7631    1.0000 </r>
       <r>  -54.7631    1.0000 </r>
       <r>  -54.7265    1.0000 </r>
       <r>  -54.7265    1.0000 </r>
       <r>  -54.7265    1.0000 </r>
       <r>  -54.6379    1.0000 </r>
       <r>  -54.5407    1.0000 </r>
       <r>  -54.5407    1.0000 </r>
       <r>  -54.5407    1.0000 </r>
       <r>   -2.4034    1.0000 </r>
       <r>    4.1046    1.0000 </r>
       <r>    4.1110    1.0000 </r>
       <r>    4.1110    1.0000 </r>
       <r>    4.1110    1.0000 </r>
       <r>    4.6008    1.0000 </r>
       <r>    5.4084    1.0000 </r>
       <r>    5.4084    1.0000 </r>
       <r>    5.4084    1.0000 </r>
       <r>    5.4087    1.0000 </r>
       <r>    5.4087    1.0000 </r>
       <r>    5.4087    1.0000 </r>
       <r>    6.0209    1.0000 </r>
       <r>    6.0209    1.0000 </r>
       <r>    7.3357    1.0000 </r>
       <r>    7.3357    1.0000 </r>
       <r>    7.3357    1.0000 </r>
       <r>    7.4585    1.0000 </r>
       <r>    7.4585    1.0000 </r>
       <r>    7.4585    1.0000 </r>
       <r>    7.5255    1.0000 </r>
       <r>    7.5255    1.0000 </r>
       <r>    7.7124    1.0000 </r>
       <r>    7.7124    1.0000 </r>
       <r>    8.2590    1.0000 </r>
       <r>    8.3767    1.0000 </r>
       <r>    8.3767    1.0000 </r>
       <r>    8.3768    0.9939 </r>
       <r>    9.5443    0.0000 </r>
       <r>    9.8436    0.0000 </r>
       <r>    9.8436    0.0000 </r>
       <r>    9.8436    0.0000 </r>
       <r>   12.5158    0.0000 </r>
       <r>   12.5158    0.0000 </r>
       <r>   12.5158    0.0000 </r>
       <r>   18.2324    0.0000 </r>
       <r>   18.2324    0.0000 </r>
       <r>   18.2324    0.0000 </r>
       <r>   18.5748    0.0000 </r>
       <r>   18.5748    0.0000 </r>
      </set>
      <set comment="kpoint 2">
       <r>  -54.7635    1.0000 </r>
       <r>  -54.7635    1.0000 </r>
       <r>  -54.7623    1.0000 </r>
       <r>  -54.7598    1.0000 </r>
       <r>  -54.7597    1.0000 </r>
       <r>  -54.7296    1.0000 </r>
       <r>  -54.7296    1.0000 </r>
       <r>  -54.7265    1.0000 </r>
       <r>  -54.6313    1.0000 </r>
       <r>  -54.5482    1.0000 </r>
       <r>  -54.5412    1.0000 </r>
       <r>  -54.5412    1.0000 </r>
       <r>   -2.0886    1.0000 </r>
       <r>    2.3911    1.0000 </r>
       <r>    3.9381    1.0000 </r>
       <r>    4.0943    1.0000 </r>
       <r>    4.0943    1.0000 </r>
       <r>    5.0248    1.0000 </r>
       <r>    5.0839    1.0000 </r>
       <r>    5.0839    1.0000 </r>
       <r>    5.6405    1.0000 </r>
       <r>    5.6405    1.0000 </r>
       <r>    5.7699    1.0000 </r>
       <r>    5.9260    1.0000 </r>
       <r>    6.1906    1.0000 </r>
       <r>    6.1906    1.0000 </r>
       <r>    6.8603    1.0000 </r>
       <r>    6.8603    1.0000 </r>
       <r>    7.3226    1.0000 </r>
       <r>    7.4133    1.0000 </r>
       <r>    7.4230    1.0000 </r>
       <r>    7.4230    1.0000 </r>
       <r>    7.5716    1.0000 </r>
       <r>    7.5716    1.0000 </r>
       <r>    7.7702    1.0000 </r>
       <r>    7.7702    1.0000 </r>
       <r>    8.3765    1.0000 </r>
       <r>    8.4182    1.0000 </r>
       <r>    8.5792    0.6091 </r>
       <r>    8.5792    0.1230 </r>
       <r>    9.1050    0.0000 </r>
       <r>   10.2947    0.0000 </r>
       <r>   10.2947    0.0000 </r>
       <r>   10.7978    0.0000 </r>
       <r>   13.2222    0.0000 </r>
       <r>   13.2222    0.0000 </r>
       <r>   14.0128    0.0000 </r>
       <r>   15.7461    0.0000 </r>
       <r>   15.7461    0.0000 </r>
       <r>   16.2039    0.0000 </r>
       <r>   18.5925    0.0000 </r>
       <r>   18.8435    0.0000 </r>
      </set>
      <set comment="kpoint 3">
       <r>  -54.7635    1.0000 </r>
       <r>  -54.7635    1.0000 </r>
       <r>  -54.7610    1.0000 </r>
       <r>  -54.7511    1.0000 </r>
       <r>  -54.7511    1.0000 </r>
       <r>  -54.7375    1.0000 </r>
       <r>  -54.7375    1.0000 </r>
       <r>  -54.7265    1.0000 </r>
       <r>  -54.6168    1.0000 </r>
       <r>  -54.5642    1.0000 </r>
       <r>  -54.5419    1.0000 </r>
       <r>  -54.5419    1.0000 </r>
       <r>   -1.2178    1.0000 </r>
       <r>    0.6022    1.0000 </r>
       <r>    3.3710    1.0000 </r>
       <r>    4.1875    1.0000 </r>
       <r>    4.1875    1.0000 </r>
       <r>    4.6940    1.0000 </r>
       <r>    4.6940    1.0000 </r>
       <r>    5.4697    1.0000 </r>
       <r>    5.6357    1.0000 </r>
       <r>    5.6357    1.0000 </r>
       <r>    6.1857    1.0000 </r>
       <r>    6.4298    1.0000 </r>
       <r>    6.4299    1.0000 </r>
       <r>    6.5808    1.0000 </r>
       <r>    6.5809    1.0000 </r>
       <r>    6.6380    1.0000 </r>
       <r>    7.1113    1.0000 </r>
       <r>    7.3016    1.0000 </r>
       <r>    7.4301    1.0000 </r>
       <r>    7.4301    1.0000 </r>
       <r>    7.5741    1.0000 </r>
       <r>    7.5741    1.0000 </r>
       <r>    7.5939    1.0000 </r>
       <r>    7.6928    1.0000 </r>
       <r>    7.6928    1.0000 </r>
       <r>    8.3764    1.0000 </r>
       <r>    9.0288   -0.0063 </r>
       <r>    9.0288    0.0000 </r>
       <r>    9.7484    0.0000 </r>
       <r>   11.1728    0.0000 </r>
       <r>   11.1728    0.0000 </r>
       <r>   12.9945    0.0000 </r>
       <r>   12.9945    0.0000 </r>
       <r>   13.4061    0.0000 </r>
       <r>   13.7309    0.0000 </r>
       <r>   15.5214    0.0000 </r>
       <r>   15.5214    0.0000 </r>
       <r>   16.9083    0.0000 </r>
       <r>   17.7801    0.0000 </r>
       <r>   18.8690    0.0000 </r>
      </set>
      <set comment="kpoint 4">
       <r>  -54.7633    1.0000 </r>
       <r>  -54.7630    1.0000 </r>
       <r>  -54.7600    1.0000 </r>
       <r>  -54.7599    1.0000 </r>
       <r>  -54.7599    1.0000 </r>
       <r>  -54.7300    1.0000 </r>
       <r>  -54.7288    1.0000 </r>
       <r>  -54.7288    1.0000 </r>
       <r>  -54.6289    1.0000 </r>
       <r>  -54.5502    1.0000 </r>
       <r>  -54.5416    1.0000 </r>
       <r>  -54.5416    1.0000 </r>
       <r>   -1.9834    1.0000 </r>
       <r>    2.5420    1.0000 </r>
       <r>    3.5776    1.0000 </r>
       <r>    3.5776    1.0000 </r>
       <r>    3.9820    1.0000 </r>
       <r>    4.7384    1.0000 </r>
       <r>    5.2658    1.0000 </r>
       <r>    5.2658    1.0000 </r>
       <r>    5.4118    1.0000 </r>
       <r>    5.8682    1.0000 </r>
       <r>    6.0783    1.0000 </r>
       <r>    6.1084    1.0000 </r>
       <r>    6.1085    1.0000 </r>
       <r>    6.1897    1.0000 </r>
       <r>    6.7131    1.0000 </r>
       <r>    6.8652    1.0000 </r>
       <r>    7.2150    1.0000 </r>
       <r>    7.2150    1.0000 </r>
       <r>    7.4944    1.0000 </r>
       <r>    7.5188    1.0000 </r>
       <r>    7.5276    1.0000 </r>
       <r>    7.6292    1.0000 </r>
       <r>    7.6293    1.0000 </r>
       <r>    7.8319    1.0000 </r>
       <r>    8.3980    1.0000 </r>
       <r>    8.3980    1.0000 </r>
       <r>    8.5704    0.5043 </r>
       <r>    9.0706   -0.1016 </r>
       <r>    9.5659    0.0000 </r>
       <r>   10.4720    0.0000 </r>
       <r>   10.4720    0.0000 </r>
       <r>   11.3048    0.0000 </r>
       <r>   12.6953    0.0000 </r>
       <r>   12.6953    0.0000 </r>
       <r>   15.1961    0.0000 </r>
       <r>   15.3234    0.0000 </r>
       <r>   15.4644    0.0000 </r>
       <r>   16.7848    0.0000 </r>
       <r>   16.7848    0.0000 </r>
       <r>   18.9023    0.0000 </r>
      </set>
      <set comment="kpoint 5">
       <r>  -54.7632    1.0000 </r>
       <r>  -54.7616    1.0000 </r>
       <r>  -54.7601    1.0000 </r>
       <r>  -54.7548    1.0000 </r>
       <r>  -54.7514    1.0000 </r>
       <r>  -54.7373    1.0000 </r>
       <r>  -54.7338    1.0000 </r>
       <r>  -54.7292    1.0000 </r>
       <r>  -54.6158    1.0000 </r>
       <r>  -54.5643    1.0000 </r>
       <r>  -54.5425    1.0000 </r>
       <r>  -54.5424    1.0000 </r>
       <r>   -1.2834    1.0000 </r>
       <r>    1.2588    1.0000 </r>
       <r>    2.6304    1.0000 </r>
       <r>    3.4042    1.0000 </r>
       <r>    3.9842    1.0000 </r>
       <r>    4.8853    1.0000 </r>
       <r>    5.2631    1.0000 </r>
       <r>    5.3418    1.0000 </r>
       <r>    5.5736    1.0000 </r>
       <r>    5.9688    1.0000 </r>
       <r>    6.2514    1.0000 </r>
       <r>    6.3669    1.0000 </r>
       <r>    6.4904    1.0000 </r>
       <r>    6.5093    1.0000 </r>
       <r>    6.5287    1.0000 </r>
       <r>    6.6074    1.0000 </r>
       <r>    7.1054    1.0000 </r>
       <r>    7.1219    1.0000 </r>
       <r>    7.1687    1.0000 </r>
       <r>    7.4693    1.0000 </r>
       <r>    7.5573    1.0000 </r>
       <r>    7.6523    1.0000 </r>
       <r>    7.6817    1.0000 </r>
       <r>    7.7985    1.0000 </r>
       <r>    8.1053    1.0000 </r>
       <r>    8.4045    1.0174 </r>
       <r>    8.8432   -0.0726 </r>
       <r>    9.4583   -0.0000 </r>
       <r>    9.9901    0.0000 </r>
       <r>   11.5700    0.0000 </r>
       <r>   11.6612    0.0000 </r>
       <r>   12.4883    0.0000 </r>
       <r>   12.7219    0.0000 </r>
       <r>   13.2673    0.0000 </r>
       <r>   14.1115    0.0000 </r>
       <r>   14.8240    0.0000 </r>
       <r>   16.2759    0.0000 </r>
       <r>   16.9730    0.0000 </r>
       <r>   17.0067    0.0000 </r>
       <r>   17.1519    0.0000 </r>
      </set>
      <set comment="kpoint 6">
       <r>  -54.7631    1.0000 </r>
       <r>  -54.7605    1.0000 </r>
       <r>  -54.7603    1.0000 </r>
       <r>  -54.7505    1.0000 </r>
       <r>  -54.7469    1.0000 </r>
       <r>  -54.7418    1.0000 </r>
       <r>  -54.7382    1.0000 </r>
       <r>  -54.7290    1.0000 </r>
       <r>  -54.6081    1.0000 </r>
       <r>  -54.5723    1.0000 </r>
       <r>  -54.5431    1.0000 </r>
       <r>  -54.5424    1.0000 </r>
       <r>   -0.6719    1.0000 </r>
       <r>    0.4023    1.0000 </r>
       <r>    2.1565    1.0000 </r>
       <r>    3.6809    1.0000 </r>
       <r>    3.8774    1.0000 </r>
       <r>    5.2411    1.0000 </r>
       <r>    5.2515    1.0000 </r>
       <r>    5.5676    1.0000 </r>
       <r>    5.6499    1.0000 </r>
       <r>    5.7352    1.0000 </r>
       <r>    6.2512    1.0000 </r>
       <r>    6.2812    1.0000 </r>
       <r>    6.3935    1.0000 </r>
       <r>    6.4721    1.0000 </r>
       <r>    6.6803    1.0000 </r>
       <r>    6.7572    1.0000 </r>
       <r>    7.0276    1.0000 </r>
       <r>    7.1857    1.0000 </r>
       <r>    7.3090    1.0000 </r>
       <r>    7.3729    1.0000 </r>
       <r>    7.4351    1.0000 </r>
       <r>    7.6682    1.0000 </r>
       <r>    7.7149    1.0000 </r>
       <r>    7.8449    1.0000 </r>
       <r>    8.0302    1.0000 </r>
       <r>    8.3895    1.0727 </r>
       <r>    9.2724    0.0000 </r>
       <r>    9.3717    0.0000 </r>
       <r>   10.0864    0.0000 </r>
       <r>   10.9392    0.0000 </r>
       <r>   10.9924    0.0000 </r>
       <r>   13.1627    0.0000 </r>
       <r>   13.4472    0.0000 </r>
       <r>   14.0110    0.0000 </r>
       <r>   14.6520    0.0000 </r>
       <r>   15.4027    0.0000 </r>
       <r>   16.3125    0.0000 </r>
       <r>   16.6032    0.0000 </r>
       <r>   17.5295    0.0000 </r>
       <r>   17.6145    0.0000 </r>
      </set>
      <set comment="kpoint 7">
       <r>  -54.7632    1.0000 </r>
       <r>  -54.7615    1.0000 </r>
       <r>  -54.7612    1.0000 </r>
       <r>  -54.7583    1.0000 </r>
       <r>  -54.7530    1.0000 </r>
       <r>  -54.7358    1.0000 </r>
       <r>  -54.7311    1.0000 </r>
       <r>  -54.7283    1.0000 </r>
       <r>  -54.6214    1.0000 </r>
       <r>  -54.5585    1.0000 </r>
       <r>  -54.5425    1.0000 </r>
       <r>  -54.5417    1.0000 </r>
       <r>   -1.5797    1.0000 </r>
       <r>    1.6905    1.0000 </r>
       <r>    2.4264    1.0000 </r>
       <r>    4.2292    1.0000 </r>
       <r>    4.2373    1.0000 </r>
       <r>    4.9146    1.0000 </r>
       <r>    5.0474    1.0000 </r>
       <r>    5.3716    1.0000 </r>
       <r>    5.4827    1.0000 </r>
       <r>    5.9045    1.0000 </r>
       <r>    6.0707    1.0000 </r>
       <r>    6.3210    1.0000 </r>
       <r>    6.4013    1.0000 </r>
       <r>    6.4117    1.0000 </r>
       <r>    6.5344    1.0000 </r>
       <r>    6.6951    1.0000 </r>
       <r>    7.1338    1.0000 </r>
       <r>    7.1909    1.0000 </r>
       <r>    7.3504    1.0000 </r>
       <r>    7.4018    1.0000 </r>
       <r>    7.6789    1.0000 </r>
       <r>    7.7001    1.0000 </r>
       <r>    7.7063    1.0000 </r>
       <r>    7.8212    1.0000 </r>
       <r>    7.8510    1.0000 </r>
       <r>    8.4058    1.0031 </r>
       <r>    8.5902    0.1444 </r>
       <r>    9.1825   -0.0022 </r>
       <r>    9.8110    0.0000 </r>
       <r>   10.4357    0.0000 </r>
       <r>   11.7996    0.0000 </r>
       <r>   11.9702    0.0000 </r>
       <r>   12.2327    0.0000 </r>
       <r>   13.7521    0.0000 </r>
       <r>   14.9909    0.0000 </r>
       <r>   15.4095    0.0000 </r>
       <r>   15.8069    0.0000 </r>
       <r>   16.1713    0.0000 </r>
       <r>   17.3163    0.0000 </r>
       <r>   17.4517    0.0000 </r>
      </set>
      <set comment="kpoint 8">
       <r>  -54.7629    1.0000 </r>
       <r>  -54.7628    1.0000 </r>
       <r>  -54.7529    1.0000 </r>
       <r>  -54.7529    1.0000 </r>
       <r>  -54.7507    1.0000 </r>
       <r>  -54.7393    1.0000 </r>
       <r>  -54.7343    1.0000 </r>
       <r>  -54.7343    1.0000 </r>
       <r>  -54.6051    1.0000 </r>
       <r>  -54.5750    1.0000 </r>
       <r>  -54.5432    1.0000 </r>
       <r>  -54.5431    1.0000 </r>
       <r>   -0.7842    1.0000 </r>
       <r>    0.9205    1.0000 </r>
       <r>    2.9897    1.0000 </r>
       <r>    2.9897    1.0000 </r>
       <r>    3.3212    1.0000 </r>
       <r>    3.5185    1.0000 </r>
       <r>    5.6800    1.0000 </r>
       <r>    5.6800    1.0000 </r>
       <r>    5.7764    1.0000 </r>
       <r>    6.2285    1.0000 </r>
       <r>    6.3673    1.0000 </r>
       <r>    6.3722    1.0000 </r>
       <r>    6.4647    1.0000 </r>
       <r>    6.4823    1.0000 </r>
       <r>    6.4902    1.0000 </r>
       <r>    6.4902    1.0000 </r>
       <r>    6.9074    1.0000 </r>
       <r>    6.9074    1.0000 </r>
       <r>    7.2569    1.0000 </r>
       <r>    7.3956    1.0000 </r>
       <r>    7.5733    1.0000 </r>
       <r>    7.6298    1.0000 </r>
       <r>    7.6298    1.0000 </r>
       <r>    7.7034    1.0000 </r>
       <r>    8.4714    1.0000 </r>
       <r>    8.4714    1.0503 </r>
       <r>    9.3038   -0.0005 </r>
       <r>   10.6320    0.0000 </r>
       <r>   11.1908    0.0000 </r>
       <r>   11.9258    0.0000 </r>
       <r>   11.9258    0.0000 </r>
       <r>   12.7206    0.0000 </r>
       <r>   13.7469    0.0000 </r>
       <r>   13.7945    0.0000 </r>
       <r>   13.7945    0.0000 </r>
       <r>   14.0222    0.0000 </r>
       <r>   14.9238    0.0000 </r>
       <r>   14.9239    0.0000 </r>
       <r>   16.7532    0.0000 </r>
       <r>   17.3557    0.0000 </r>
      </set>
      <set comment="kpoint 9">
       <r>  -54.7628    1.0000 </r>
       <r>  -54.7613    1.0000 </r>
       <r>  -54.7542    1.0000 </r>
       <r>  -54.7499    1.0000 </r>
       <r>  -54.7479    1.0000 </r>
       <r>  -54.7414    1.0000 </r>
       <r>  -54.7380    1.0000 </r>
       <r>  -54.7337    1.0000 </r>
       <r>  -54.5944    1.0000 </r>
       <r>  -54.5857    1.0000 </r>
       <r>  -54.5436    1.0000 </r>
       <r>  -54.5432    1.0000 </r>
       <r>   -0.0080    1.0000 </r>
       <r>    0.2285    1.0000 </r>
       <r>    1.7175    1.0000 </r>
       <r>    3.0908    1.0000 </r>
       <r>    3.4215    1.0000 </r>
       <r>    4.6417    1.0000 </r>
       <r>    5.6646    1.0000 </r>
       <r>    5.8152    1.0000 </r>
       <r>    5.9051    1.0000 </r>
       <r>    6.1039    1.0000 </r>
       <r>    6.1599    1.0000 </r>
       <r>    6.3232    1.0000 </r>
       <r>    6.3529    1.0000 </r>
       <r>    6.3594    1.0000 </r>
       <r>    6.6807    1.0000 </r>
       <r>    6.7985    1.0000 </r>
       <r>    6.8141    1.0000 </r>
       <r>    6.8229    1.0000 </r>
       <r>    7.3391    1.0000 </r>
       <r>    7.3897    1.0000 </r>
       <r>    7.4518    1.0000 </r>
       <r>    7.6477    1.0000 </r>
       <r>    7.6543    1.0000 </r>
       <r>    7.7863    1.0000 </r>
       <r>    8.4600    1.0000 </r>
       <r>    8.5635    0.8321 </r>
       <r>    9.4165    0.0000 </r>
       <r>   10.0903    0.0000 </r>
       <r>   10.4434    0.0000 </r>
       <r>   11.1813    0.0000 </r>
       <r>   12.9268    0.0000 </r>
       <r>   13.2130    0.0000 </r>
       <r>   13.2451    0.0000 </r>
       <r>   14.1235    0.0000 </r>
       <r>   14.8500    0.0000 </r>
       <r>   15.4028    0.0000 </r>
       <r>   15.4711    0.0000 </r>
       <r>   15.6920    0.0000 </r>
       <r>   16.0449    0.0000 </r>
       <r>   16.4068    0.0000 </r>
      </set>
      <set comment="kpoint 10">
       <r>  -54.7621    1.0000 </r>
       <r>  -54.7612    1.0000 </r>
       <r>  -54.7567    1.0000 </r>
       <r>  -54.7525    1.0000 </r>
       <r>  -54.7448    1.0000 </r>
       <r>  -54.7438    1.0000 </r>
       <r>  -54.7360    1.0000 </r>
       <r>  -54.7326    1.0000 </r>
       <r>  -54.6019    1.0000 </r>
       <r>  -54.5781    1.0000 </r>
       <r>  -54.5435    1.0000 </r>
       <r>  -54.5430    1.0000 </r>
       <r>   -0.4762    1.0000 </r>
       <r>    0.7300    1.0000 </r>
       <r>    1.7887    1.0000 </r>
       <r>    2.4640    1.0000 </r>
       <r>    4.6561    1.0000 </r>
       <r>    4.7910    1.0000 </r>
       <r>    5.3271    1.0000 </r>
       <r>    5.6321    1.0000 </r>
       <r>    5.7666    1.0000 </r>
       <r>    6.1246    1.0000 </r>
       <r>    6.1967    1.0000 </r>
       <r>    6.3040    1.0000 </r>
       <r>    6.3894    1.0000 </r>
       <r>    6.3947    1.0000 </r>
       <r>    6.6455    1.0000 </r>
       <r>    6.7304    1.0000 </r>
       <r>    6.8749    1.0000 </r>
       <r>    7.1047    1.0000 </r>
       <r>    7.2794    1.0000 </r>
       <r>    7.3301    1.0000 </r>
       <r>    7.5110    1.0000 </r>
       <r>    7.6349    1.0000 </r>
       <r>    7.7316    1.0000 </r>
       <r>    7.8256    1.0000 </r>
       <r>    8.3406    1.0000 </r>
       <r>    8.6371    0.5557 </r>
       <r>    8.6465    0.0000 </r>
       <r>    9.6657    0.0000 </r>
       <r>   10.6321    0.0000 </r>
       <r>   11.2756    0.0000 </r>
       <r>   12.3506    0.0000 </r>
       <r>   12.7601    0.0000 </r>
       <r>   13.3525    0.0000 </r>
       <r>   13.5105    0.0000 </r>
       <r>   15.4361    0.0000 </r>
       <r>   15.5650    0.0000 </r>
       <r>   15.6237    0.0000 </r>
       <r>   15.9715    0.0000 </r>
       <r>   16.7907    0.0000 </r>
       <r>   17.1617    0.0000 </r>
      </set>
     </set>
     <set comment="spin 2">
      <set comment="kpoint 1">
       <r>  -54.7636    1.0000 </r>
       <r>  -54.7636    1.0000 </r>
       <r>  -54.7632    1.0000 </r>
       <r>  -54.7631    1.0000 </r>
       <r>  -54.7631    1.0000 </r>
       <r>  -54.7265    1.0000 </r>
       <r>  -54.7265    1.0000 </r>
       <r>  -54.7265    1.0000 </r>
       <r>  -54.6379    1.0000 </r>
       <r>  -54.5407    1.0000 </r>
       <r>  -54.5407    1.0000 </r>
       <r>  -54.5407    1.0000 </r>
       <r>   -2.4034    1.0000 </r>
       <r>    4.1046    1.0000 </r>
       <r>    4.1110    1.0000 </r>
       <r>    4.1110    1.0000 </r>
       <r>    4.1110    1.0000 </r>
       <r>    4.6008    1.0000 </r>
       <r>    5.4084    1.0000 </r>
       <r>    5.4084    1.0000 </r>
       <r>    5.4084    1.0000 </r>
       <r>    5.4087    1.0000 </r>
       <r>    5.4087    1.0000 </r>
       <r>    5.4087    1.0000 </r>
       <r>    6.0209    1.0000 </r>
       <r>    6.0209    1.0000 </r>
       <r>    7.3357    1.0000 </r>
       <r>    7.3357    1.0000 </r>
       <r>    7.3357    1.0000 </r>
       <r>    7.4585    1.0000 </r>
       <r>    7.4585    1.0000 </r>
       <r>    7.4585    1.0000 </r>
       <r>    7.5255    1.0000 </r>
       <r>    7.5255    1.0000 </r>
       <r>    7.7124    1.0000 </r>
       <r>    7.7124    1.0000 </r>
       <r>    8.2590    1.0000 </r>
       <r>    8.3767    1.0000 </r>
       <r>    8.3767    1.0000 </r>
       <r>    8.3768    0.9939 </r>
       <r>    9.5443    0.0000 </r>
       <r>    9.8436    0.0000 </r>
       <r>    9.8436    0.0000 </r>
       <r>    9.8436    0.0000 </r>
       <r>   12.5158    0.0000 </r>
       <r>   12.5158    0.0000 </r>
       <r>   12.5158    0.0000 </r>
       <r>   18.2324    0.0000 </r>
       <r>   18.2324    0.0000 </r>
       <r>   18.2324    0.0000 </r>
       <r>   18.5748    0.0000 </r>
       <r>   18.5748    0.0000 </r>
      </set>
      <set comment="kpoint 2">
       <r>  -54.7635    1.0000 </r>
       <r>  -54.7635    1.0000 </r>
       <r>  -54.7623    1.0000 </r>
       <r>  -54.7598    1.0000 </r>
       <r>  -54.7597    1.0000 </r>
       <r>  -54.7296    1.0000 </r>
       <r>  -54.7296    1.0000 </r>
       <r>  -54.7265    1.0000 </r>
       <r>  -54.6313    1.0000 </r>
       <r>  -54.5482    1.0000 </r>
       <r>  -54.5412    1.0000 </r>
       <r>  -54.5412    1.0000 </r>
       <r>   -2.0886    1.0000 </r>
       <r>    2.3911    1.0000 </r>
       <r>    3.9381    1.0000 </r>
       <r>    4.0943    1.0000 </r>
       <r>    4.0943    1.0000 </r>
       <r>    5.0248    1.0000 </r>
       <r>    5.0839    1.0000 </r>
       <r>    5.0839    1.0000 </r>
       <r>    5.6405    1.0000 </r>
       <r>    5.6405    1.0000 </r>
       <r>    5.7699    1.0000 </r>
       <r>    5.9260    1.0000 </r>
       <r>    6.1906    1.0000 </r>
       <r>    6.1906    1.0000 </r>
       <r>    6.8603    1.0000 </r>
       <r>    6.8603    1.0000 </r>
       <r>    7.3226    1.0000 </r>
       <r>    7.4133    1.0000 </r>
       <r>    7.4230    1.0000 </r>
       <r>    7.4230    1.0000 </r>
       <r>    7.5716    1.0000 </r>
       <r>    7.5716    1.0000 </r>
       <r>    7.7702    1.0000 </r>
       <r>    7.7702    1.0000 </r>
       <r>    8.3765    1.0000 </r>
       <r>    8.4182    1.0000 </r>
       <r>    8.5792    0.6091 </r>
       <r>    8.5792    0.1230 </r>
       <r>    9.1050    0.0000 </r>
       <r>   10.2947    0.0000 </r>
       <r>   10.2947    0.0000 </r>
       <r>   10.7978    0.0000 </r>
       <r>   13.2222    0.0000 </r>
       <r>   13.2222    0.0000 </r>
       <r>   14.0128    0.0000 </r>
       <r>   15.7461    0.0000 </r>
       <r>   15.7461    0.0000 </r>
       <r>   16.2039    0.0000 </r>
       <r>   18.5925    0.0000 </r>
       <r>   18.8435    0.0000 </r>
      </set>
      <set comment="kpoint 3">
       <r>  -54.7635    1.0000 </r>
       <r>  -54.7635    1.0000 </r>
       <r>  -54.7610    1.0000 </r>
       <r>  -54.7511    1.0000 </r>
       <r>  -54.7511    1.0000 </r>
       <r>  -54.7375    1.0000 </r>
       <r>  -54.7375    1.0000 </r>
       <r>  -54.7265    1.0000 </r>
       <r>  -54.6168    1.0000 </r>
       <r>  -54.5642    1.0000 </r>
       <r>  -54.5419    1.0000 </r>
       <r>  -54.5419    1.0000 </r>
       <r>   -1.2178    1.0000 </r>
       <r>    0.6022    1.0000 </r>
       <r>    3.3710    1.0000 </r>
       <r>    4.1875    1.0000 </r>
       <r>    4.1875    1.0000 </r>
       <r>    4.6940    1.0000 </r>
       <r>    4.6940    1.0000 </r>
       <r>    5.4697    1.0000 </r>
       <r>    5.6357    1.0000 </r>
       <r>    5.6357    1.0000 </r>
       <r>    6.1857    1.0000 </r>
       <r>    6.4298    1.0000 </r>
       <r>    6.4299    1.0000 </r>
       <r>    6.5808    1.0000 </r>
       <r>    6.5809    1.0000 </r>
       <r>    6.6380    1.0000 </r>
       <r>    7.1113    1.0000 </r>
       <r>    7.3016    1.0000 </r>
       <r>    7.4301    1.0000 </r>
       <r>    7.4301    1.0000 </r>
       <r>    7.5741    1.0000 </r>
       <r>    7.5741    1.0000 </r>
       <r>    7.5939    1.0000 </r>
       <r>    7.6928    1.0000 </r>
       <r>    7.6928    1.0000 </r>
       <r>    8.3764    1.0000 </r>
       <r>    9.0288   -0.0063 </r>
       <r>    9.0288    0.0000 </r>
       <r>    9.7484    0.0000 </r>
       <r>   11.1728    0.0000 </r>
       <r>   11.1728    0.0000 </r>
       <r>   12.9945    0.0000 </r>
       <r>   12.9945    0.0000 </r>
       <r>   13.4061    0.0000 </r>
       <r>   13.7309    0.0000 </r>
       <r>   15.5214    0.0000 </r>
       <r>   15.5214    0.0000 </r>
       <r>   16.9083    0.0000 </r>
       <r>   17.7801    0.0000 </r>
       <r>   18.8690    0.0000 </r>
      </set>
      <set comment="kpoint 4">
       <r>  -54.7633    1.0000 </r>
       <r>  -54.7630    1.0000 </r>
       <r>  -54.7600    1.0000 </r>
       <r>  -54.7599    1.0000 </r>
       <r>  -54.7599    1.0000 </r>
       <r>  -54.7300    1.0000 </r>
       <r>  -54.7288    1.0000 </r>
       <r>  -54.7288    1.0000 </r>
       <r>  -54.6289    1.0000 </r>
       <r>  -54.5502    1.0000 </r>
       <r>  -54.5416    1.0000 </r>
       <r>  -54.5416    1.0000 </r>
       <r>   -1.9834    1.0000 </r>
       <r>    2.5420    1.0000 </r>
       <r>    3.5776    1.0000 </r>
       <r>    3.5777    1.0000 </r>
       <r>    3.9820    1.0000 </r>
       <r>    4.7384    1.0000 </r>
       <r>    5.2658    1.0000 </r>
       <r>    5.2658    1.0000 </r>
       <r>    5.4118    1.0000 </r>
       <r>    5.8682    1.0000 </r>
       <r>    6.0783    1.0000 </r>
       <r>    6.1084    1.0000 </r>
       <r>    6.1085    1.0000 </r>
       <r>    6.1897    1.0000 </r>
       <r>    6.7131    1.0000 </r>
       <r>    6.8652    1.0000 </r>
       <r>    7.2150    1.0000 </r>
       <r>    7.2150    1.0000 </r>
       <r>    7.4944    1.0000 </r>
       <r>    7.5188    1.0000 </r>
       <r>    7.5276    1.0000 </r>
       <r>    7.6292    1.0000 </r>
       <r>    7.6293    1.0000 </r>
       <r>    7.8319    1.0000 </r>
       <r>    8.3980    1.0000 </r>
       <r>    8.3980    1.0000 </r>
       <r>    8.5704    0.5043 </r>
       <r>    9.0706   -0.1016 </r>
       <r>    9.5659    0.0000 </r>
       <r>   10.4720    0.0000 </r>
       <r>   10.4720    0.0000 </r>
       <r>   11.3048    0.0000 </r>
       <r>   12.6953    0.0000 </r>
       <r>   12.6953    0.0000 </r>
       <r>   15.1961    0.0000 </r>
       <r>   15.3234    0.0000 </r>
       <r>   15.4644    0.0000 </r>
       <r>   16.7848    0.0000 </r>
       <r>   16.7848    0.0000 </r>
       <r>   18.9023    0.0000 </r>
      </set>
      <set comment="kpoint 5">
       <r>  -54.7632    1.0000 </r>
       <r>  -54.7616    1.0000 </r>
       <r>  -54.7601    1.0000 </r>
       <r>  -54.7548    1.0000 </r>
       <r>  -54.7514    1.0000 </r>
       <r>  -54.7373    1.0000 </r>
       <r>  -54.7338    1.0000 </r>
       <r>  -54.7292    1.0000 </r>
       <r>  -54.6158    1.0000 </r>
       <r>  -54.5643    1.0000 </r>
       <r>  -54.5425    1.0000 </r>
       <r>  -54.5424    1.0000 </r>
       <r>   -1.2834    1.0000 </r>
       <r>    1.2588    1.0000 </r>
       <r>    2.6304    1.0000 </r>
       <r>    3.4042    1.0000 </r>
       <r>    3.9842    1.0000 </r>
       <r>    4.8853    1.0000 </r>
       <r>    5.2631    1.0000 </r>
       <r>    5.3418    1.0000 </r>
       <r>    5.5736    1.0000 </r>
       <r>    5.9688    1.0000 </r>
       <r>    6.2514    1.0000 </r>
       <r>    6.3669    1.0000 </r>
       <r>    6.4904    1.0000 </r>
       <r>    6.5093    1.0000 </r>
       <r>    6.5287    1.0000 </r>
       <r>    6.6074    1.0000 </r>
       <r>    7.1054    1.0000 </r>
       <r>    7.1219    1.0000 </r>
       <r>    7.1687    1.0000 </r>
       <r>    7.4693    1.0000 </r>
       <r>    7.5573    1.0000 </r>
       <r>    7.6523    1.0000 </r>
       <r>    7.6817    1.0000 </r>
       <r>    7.7985    1.0000 </r>
       <r>    8.1053    1.0000 </r>
       <r>    8.4045    1.0174 </r>
       <r>    8.8432   -0.0726 </r>
       <r>    9.4583   -0.0000 </r>
       <r>    9.9901    0.0000 </r>
       <r>   11.5700    0.0000 </r>
       <r>   11.6612    0.0000 </r>
       <r>   12.4883    0.0000 </r>
       <r>   12.7219    0.0000 </r>
       <r>   13.2673    0.0000 </r>
       <r>   14.1115    0.0000 </r>
       <r>   14.8240    0.0000 </r>
       <r>   16.2759    0.0000 </r>
       <r>   16.9730    0.0000 </r>
       <r>   17.0067    0.0000 </r>
       <r>   17.1519    0.0000 </r>
      </set>
      <set comment="kpoint 6">
       <r>  -54.7631    1.0000 </r>
       <r>  -54.7605    1.0000 </r>
       <r>  -54.7603    1.0000 </r>
       <r>  -54.7505    1.0000 </r>
       <r>  -54.7469    1.0000 </r>
       <r>  -54.7418    1.0000 </r>
       <r>  -54.7382    1.0000 </r>
       <r>  -54.7290    1.0000 </r>
       <r>  -54.6081    1.0000 </r>
       <r>  -54.5723    1.0000 </r>
       <r>  -54.5431    1.0000 </r>
       <r>  -54.5424    1.0000 </r>
       <r>   -0.6719    1.0000 </r>
       <r>    0.4023    1.0000 </r>
       <r>    2.1565    1.0000 </r>
       <r>    3.6809    1.0000 </r>
       <r>    3.8774    1.0000 </r>
       <r>    5.2411    1.0000 </r>
       <r>    5.2515    1.0000 </r>
       <r>    5.5676    1.0000 </r>
       <r>    5.6499    1.0000 </r>
       <r>    5.7352    1.0000 </r>
       <r>    6.2512    1.0000 </r>
       <r>    6.2812    1.0000 </r>
       <r>    6.3935    1.0000 </r>
       <r>    6.4721    1.0000 </r>
       <r>    6.6803    1.0000 </r>
       <r>    6.7572    1.0000 </r>
       <r>    7.0276    1.0000 </r>
       <r>    7.1857    1.0000 </r>
       <r>    7.3090    1.0000 </r>
       <r>    7.3729    1.0000 </r>
       <r>    7.4351    1.0000 </r>
       <r>    7.6682    1.0000 </r>
       <r>    7.7149    1.0000 </r>
       <r>    7.8449    1.0000 </r>
       <r>    8.0302    1.0000 </r>
       <r>    8.3895    1.0727 </r>
       <r>    9.2724    0.0000 </r>
       <r>    9.3717    0.0000 </r>
       <r>   10.0864    0.0000 </r>
       <r>   10.9392    0.0000 </r>
       <r>   10.9924    0.0000 </r>
       <r>   13.1627    0.0000 </r>
       <r>   13.4472    0.0000 </r>
       <r>   14.0110    0.0000 </r>
       <r>   14.6520    0.0000 </r>
       <r>   15.4027    0.0000 </r>
       <r>   16.3125    0.0000 </r>
       <r>   16.6032    0.0000 </r>
       <r>   17.5295    0.0000 </r>
       <r>   17.6145    0.0000 </r>
      </set>
      <set comment="kpoint 7">
       <r>  -54.7632    1.0000 </r>
       <r>  -54.7615    1.0000 </r>
       <r>  -54.7612    1.0000 </r>
       <r>  -54.7583    1.0000 </r>
       <r>  -54.7530    1.0000 </r>
       <r>  -54.7358    1.0000 </r>
       <r>  -54.7311    1.0000 </r>
       <r>  -54.7283    1.0000 </r>
       <r>  -54.6214    1.0000 </r>
       <r>  -54.5585    1.0000 </r>
       <r>  -54.5425    1.0000 </r>
       <r>  -54.5417    1.0000 </r>
       <r>   -1.5797    1.0000 </r>
       <r>    1.6905    1.0000 </r>
       <r>    2.4264    1.0000 </r>
       <r>    4.2292    1.0000 </r>
       <r>    4.2373    1.0000 </r>
       <r>    4.9146    1.0000 </r>
       <r>    5.0474    1.0000 </r>
       <r>    5.3716    1.0000 </r>
       <r>    5.4827    1.0000 </r>
       <r>    5.9045    1.0000 </r>
       <r>    6.0707    1.0000 </r>
       <r>    6.3210    1.0000 </r>
       <r>    6.4013    1.0000 </r>
       <r>    6.4117    1.0000 </r>
       <r>    6.5344    1.0000 </r>
       <r>    6.6951    1.0000 </r>
       <r>    7.1338    1.0000 </r>
       <r>    7.1909    1.0000 </r>
       <r>    7.3504    1.0000 </r>
       <r>    7.4018    1.0000 </r>
       <r>    7.6789    1.0000 </r>
       <r>    7.7001    1.0000 </r>
       <r>    7.7063    1.0000 </r>
       <r>    7.8212    1.0000 </r>
       <r>    7.8510    1.0000 </r>
       <r>    8.4058    1.0031 </r>
       <r>    8.5902    0.1444 </r>
       <r>    9.1825   -0.0022 </r>
       <r>    9.8110    0.0000 </r>
       <r>   10.4357    0.0000 </r>
       <r>   11.7996    0.0000 </r>
       <r>   11.9702    0.0000 </r>
       <r>   12.2327    0.0000 </r>
       <r>   13.7521    0.0000 </r>
       <r>   14.9909    0.0000 </r>
       <r>   15.4095    0.0000 </r>
       <r>   15.8069    0.0000 </r>
       <r>   16.1713    0.0000 </r>
       <r>   17.3163    0.0000 </r>
       <r>   17.4517    0.0000 </r>
      </set>
      <set comment="kpoint 8">
       <r>  -54.7629    1.0000 </r>
       <r>  -54.7628    1.0000 </r>
       <r>  -54.7529    1.0000 </r>
       <r>  -54.7529    1.0000 </r>
       <r>  -54.7507    1.0000 </r>
       <r>  -54.7393    1.0000 </r>
       <r>  -54.7343    1.0000 </r>
       <r>  -54.7343    1.0000 </r>
       <r>  -54.6051    1.0000 </r>
       <r>  -54.5750    1.0000 </r>
       <r>  -54.5432    1.0000 </r>
       <r>  -54.5431    1.0000 </r>
       <r>   -0.7842    1.0000 </r>
       <r>    0.9205    1.0000 </r>
       <r>    2.9897    1.0000 </r>
       <r>    2.9897    1.0000 </r>
       <r>    3.3212    1.0000 </r>
       <r>    3.5185    1.0000 </r>
       <r>    5.6800    1.0000 </r>
       <r>    5.6800    1.0000 </r>
       <r>    5.7764    1.0000 </r>
       <r>    6.2285    1.0000 </r>
       <r>    6.3673    1.0000 </r>
       <r>    6.3722    1.0000 </r>
       <r>    6.4647    1.0000 </r>
       <r>    6.4823    1.0000 </r>
       <r>    6.4902    1.0000 </r>
       <r>    6.4902    1.0000 </r>
       <r>    6.9074    1.0000 </r>
       <r>    6.9074    1.0000 </r>
       <r>    7.2569    1.0000 </r>
       <r>    7.3956    1.0000 </r>
       <r>    7.5733    1.0000 </r>
       <r>    7.6298    1.0000 </r>
       <r>    7.6298    1.0000 </r>
       <r>    7.7034    1.0000 </r>
       <r>    8.4714    1.0000 </r>
       <r>    8.4714    1.0503 </r>
       <r>    9.3038   -0.0005 </r>
       <r>   10.6320    0.0000 </r>
       <r>   11.1908    0.0000 </r>
       <r>   11.9258    0.0000 </r>
       <r>   11.9258    0.0000 </r>
       <r>   12.7206    0.0000 </r>
       <r>   13.7469    0.0000 </r>
       <r>   13.7945    0.0000 </r>
       <r>   13.7945    0.0000 </r>
       <r>   14.0222    0.0000 </r>
       <r>   14.9238    0.0000 </r>
       <r>   14.9239    0.0000 </r>
       <r>   16.7532    0.0000 </r>
       <r>   17.3557    0.0000 </r>
      </set>
      <set comment="kpoint 9">
       <r>  -54.7628    1.0000 </r>
       <r>  -54.7613    1.0000 </r>
       <r>  -54.7542    1.0000 </r>
       <r>  -54.7499    1.0000 </r>
       <r>  -54.7479    1.0000 </r>
       <r>  -54.7414    1.0000 </r>
       <r>  -54.7380    1.0000 </r>
       <r>  -54.7337    1.0000 </r>
       <r>  -54.5944    1.0000 </r>
       <r>  -54.5857    1.0000 </r>
       <r>  -54.5436    1.0000 </r>
       <r>  -54.5432    1.0000 </r>
       <r>   -0.0080    1.0000 </r>
       <r>    0.2285    1.0000 </r>
       <r>    1.7175    1.0000 </r>
       <r>    3.0908    1.0000 </r>
       <r>    3.4215    1.0000 </r>
       <r>    4.6417    1.0000 </r>
       <r>    5.6646    1.0000 </r>
       <r>    5.8152    1.0000 </r>
       <r>    5.9051    1.0000 </r>
       <r>    6.1039    1.0000 </r>
       <r>    6.1599    1.0000 </r>
       <r>    6.3232    1.0000 </r>
       <r>    6.3529    1.0000 </r>
       <r>    6.3594    1.0000 </r>
       <r>    6.6807    1.0000 </r>
       <r>    6.7985    1.0000 </r>
       <r>    6.8141    1.0000 </r>
       <r>    6.8229    1.0000 </r>
       <r>    7.3391    1.0000 </r>
       <r>    7.3897    1.0000 </r>
       <r>    7.4518    1.0000 </r>
       <r>    7.6477    1.0000 </r>
       <r>    7.6543    1.0000 </r>
       <r>    7.7863    1.0000 </r>
       <r>    8.4600    1.0000 </r>
       <r>    8.5635    0.8321 </r>
       <r>    9.4165    0.0000 </r>
       <r>   10.0903    0.0000 </r>
       <r>   10.4434    0.0000 </r>
       <r>   11.1813    0.0000 </r>
       <r>   12.9268    0.0000 </r>
       <r>   13.2130    0.0000 </r>
       <r>   13.2451    0.0000 </r>
       <r>   14.1235    0.0000 </r>
       <r>   14.8500    0.0000 </r>
       <r>   15.4028    0.0000 </r>
       <r>   15.4711    0.0000 </r>
       <r>   15.6920    0.0000 </r>
       <r>   16.0449    0.0000 </r>
       <r>   16.4068    0.0000 </r>
      </set>
      <set comment="kpoint 10">
       <r>  -54.7621    1.0000 </r>
       <r>  -54.7612    1.0000 </r>
       <r>  -54.7567    1.0000 </r>
       <r>  -54.7525    1.0000 </r>
       <r>  -54.7448    1.0000 </r>
       <r>  -54.7438    1.0000 </r>
       <r>  -54.7360    1.0000 </r>
       <r>  -54.7326    1.0000 </r>
       <r>  -54.6019    1.0000 </r>
       <r>  -54.5781    1.0000 </r>
       <r>  -54.5435    1.0000 </r>
       <r>  -54.5430    1.0000 </r>
       <r>   -0.4762    1.0000 </r>
       <r>    0.7300    1.0000 </r>
       <r>    1.7887    1.0000 </r>
       <r>    2.4640    1.0000 </r>
       <r>    4.6561    1.0000 </r>
       <r>    4.7910    1.0000 </r>
       <r>    5.3271    1.0000 </r>
       <r>    5.6321    1.0000 </r>
       <r>    5.7666    1.0000 </r>
       <r>    6.1246    1.0000 </r>
       <r>    6.1967    1.0000 </r>
       <r>    6.3040    1.0000 </r>
       <r>    6.3894    1.0000 </r>
       <r>    6.3947    1.0000 </r>
       <r>    6.6455    1.0000 </r>
       <r>    6.7304    1.0000 </r>
       <r>    6.8749    1.0000 </r>
       <r>    7.1047    1.0000 </r>
       <r>    7.2794    1.0000 </r>
       <r>    7.3301    1.0000 </r>
       <r>    7.5110    1.0000 </r>
       <r>    7.6349    1.0000 </r>
       <r>    7.7316    1.0000 </r>
       <r>    7.8256    1.0000 </r>
       <r>    8.3406    1.0000 </r>
       <r>    8.6371    0.5557 </r>
       <r>    8.6465    0.0000 </r>
       <r>    9.6657    0.0000 </r>
       <r>   10.6321    0.0000 </r>
       <r>   11.2756    0.0000 </r>
       <r>   12.3506    0.0000 </r>
       <r>   12.7601    0.0000 </r>
       <r>   13.3525    0.0000 </r>
       <r>   13.5105    0.0000 </r>
       <r>   15.4361    0.0000 </r>
       <r>   15.5650    0.0000 </r>
       <r>   15.6237    0.0000 </r>
       <r>   15.9715    0.0000 </r>
       <r>   16.7907    0.0000 </r>
       <r>   17.1617    0.0000 </r>
      </set>
     </set>
    </set>
   </array>
  </eigenvalues>
  <separator name="orbital magnetization" >
   <v name="MAGDIPOLOUT">      0.00000000      0.00000000      0.00000000</v>
  </separator>
  <dos>
   <i name="efermi">      8.58923436 </i>
   <total>
    <array>
     <dimension dim="1">gridpoints</dimension>
     <dimension dim="2">spin</dimension>
     <field>energy</field>
     <field>total</field>
     <field>integrated</field>
     <set>
      <set comment="spin 1">
       <r>   -58.4469     0.0000     0.0000 </r>
       <r>   -58.1768     0.0000     0.0000 </r>
       <r>   -57.9066     0.0000     0.0000 </r>
       <r>   -57.6365     0.0000     0.0000 </r>
       <r>   -57.3664     0.0000     0.0000 </r>
       <r>   -57.0963     0.0000     0.0000 </r>
       <r>   -56.8262     0.0000     0.0000 </r>
       <r>   -56.5561     0.0000     0.0000 </r>
       <r>   -56.2860     0.0000     0.0000 </r>
       <r>   -56.0159     0.0000     0.0000 </r>
       <r>   -55.7458     0.0000     0.0000 </r>
       <r>   -55.4757     0.0000     0.0000 </r>
       <r>   -55.2056     0.0000     0.0000 </r>
       <r>   -54.9355     0.0000     0.0000 </r>
       <r>   -54.6654     0.0000     8.0000 </r>
       <r>   -54.3952     0.0000    12.0000 </r>
       <r>   -54.1251     0.0000    12.0000 </r>
       <r>   -53.8550     0.0000    12.0000 </r>
       <r>   -53.5849     0.0000    12.0000 </r>
       <r>   -53.3148     0.0000    12.0000 </r>
       <r>   -53.0447     0.0000    12.0000 </r>
       <r>   -52.7746     0.0000    12.0000 </r>
       <r>   -52.5045     0.0000    12.0000 </r>
       <r>   -52.2344     0.0000    12.0000 </r>
       <r>   -51.9643     0.0000    12.0000 </r>
       <r>   -51.6942     0.0000    12.0000 </r>
       <r>   -51.4241     0.0000    12.0000 </r>
       <r>   -51.1539     0.0000    12.0000 </r>
       <r>   -50.8838     0.0000    12.0000 </r>
       <r>   -50.6137     0.0000    12.0000 </r>
       <r>   -50.3436     0.0000    12.0000 </r>
       <r>   -50.0735     0.0000    12.0000 </r>
       <r>   -49.8034     0.0000    12.0000 </r>
       <r>   -49.5333     0.0000    12.0000 </r>
       <r>   -49.2632     0.0000    12.0000 </r>
       <r>   -48.9931     0.0000    12.0000 </r>
       <r>   -48.7230     0.0000    12.0000 </r>
       <r>   -48.4529     0.0000    12.0000 </r>
       <r>   -48.1828     0.0000    12.0000 </r>
       <r>   -47.9126     0.0000    12.0000 </r>
       <r>   -47.6425     0.0000    12.0000 </r>
       <r>   -47.3724     0.0000    12.0000 </r>
       <r>   -47.1023     0.0000    12.0000 </r>
       <r>   -46.8322     0.0000    12.0000 </r>
       <r>   -46.5621     0.0000    12.0000 </r>
       <r>   -46.2920     0.0000    12.0000 </r>
       <r>   -46.0219     0.0000    12.0000 </r>
       <r>   -45.7518     0.0000    12.0000 </r>
       <r>   -45.4817     0.0000    12.0000 </r>
       <r>   -45.2116     0.0000    12.0000 </r>
       <r>   -44.9415     0.0000    12.0000 </r>
       <r>   -44.6713     0.0000    12.0000 </r>
       <r>   -44.4012     0.0000    12.0000 </r>
       <r>   -44.1311     0.0000    12.0000 </r>
       <r>   -43.8610     0.0000    12.0000 </r>
       <r>   -43.5909     0.0000    12.0000 </r>
       <r>   -43.3208     0.0000    12.0000 </r>
       <r>   -43.0507     0.0000    12.0000 </r>
       <r>   -42.7806     0.0000    12.0000 </r>
       <r>   -42.5105     0.0000    12.0000 </r>
       <r>   -42.2404     0.0000    12.0000 </r>
       <r>   -41.9703     0.0000    12.0000 </r>
       <r>   -41.7002     0.0000    12.0000 </r>
       <r>   -41.4301     0.0000    12.0000 </r>
       <r>   -41.1599     0.0000    12.0000 </r>
       <r>   -40.8898     0.0000    12.0000 </r>
       <r>   -40.6197     0.0000    12.0000 </r>
       <r>   -40.3496     0.0000    12.0000 </r>
       <r>   -40.0795     0.0000    12.0000 </r>
       <r>   -39.8094     0.0000    12.0000 </r>
       <r>   -39.5393     0.0000    12.0000 </r>
       <r>   -39.2692     0.0000    12.0000 </r>
       <r>   -38.9991     0.0000    12.0000 </r>
       <r>   -38.7290     0.0000    12.0000 </r>
       <r>   -38.4589     0.0000    12.0000 </r>
       <r>   -38.1888     0.0000    12.0000 </r>
       <r>   -37.9186     0.0000    12.0000 </r>
       <r>   -37.6485     0.0000    12.0000 </r>
       <r>   -37.3784     0.0000    12.0000 </r>
       <r>   -37.1083     0.0000    12.0000 </r>
       <r>   -36.8382     0.0000    12.0000 </r>
       <r>   -36.5681     0.0000    12.0000 </r>
       <r>   -36.2980     0.0000    12.0000 </r>
       <r>   -36.0279     0.0000    12.0000 </r>
       <r>   -35.7578     0.0000    12.0000 </r>
       <r>   -35.4877     0.0000    12.0000 </r>
       <r>   -35.2176     0.0000    12.0000 </r>
       <r>   -34.9475     0.0000    12.0000 </r>
       <r>   -34.6773     0.0000    12.0000 </r>
       <r>   -34.4072     0.0000    12.0000 </r>
       <r>   -34.1371     0.0000    12.0000 </r>
       <r>   -33.8670     0.0000    12.0000 </r>
       <r>   -33.5969     0.0000    12.0000 </r>
       <r>   -33.3268     0.0000    12.0000 </r>
       <r>   -33.0567     0.0000    12.0000 </r>
       <r>   -32.7866     0.0000    12.0000 </r>
       <r>   -32.5165     0.0000    12.0000 </r>
       <r>   -32.2464     0.0000    12.0000 </r>
       <r>   -31.9763     0.0000    12.0000 </r>
       <r>   -31.7062     0.0000    12.0000 </r>
       <r>   -31.4360     0.0000    12.0000 </r>
       <r>   -31.1659     0.0000    12.0000 </r>
       <r>   -30.8958     0.0000    12.0000 </r>
       <r>   -30.6257     0.0000    12.0000 </r>
       <r>   -30.3556     0.0000    12.0000 </r>
       <r>   -30.0855     0.0000    12.0000 </r>
       <r>   -29.8154     0.0000    12.0000 </r>
       <r>   -29.5453     0.0000    12.0000 </r>
       <r>   -29.2752     0.0000    12.0000 </r>
       <r>   -29.0051     0.0000    12.0000 </r>
       <r>   -28.7350     0.0000    12.0000 </r>
       <r>   -28.4649     0.0000    12.0000 </r>
       <r>   -28.1948     0.0000    12.0000 </r>
       <r>   -27.9246     0.0000    12.0000 </r>
       <r>   -27.6545     0.0000    12.0000 </r>
       <r>   -27.3844     0.0000    12.0000 </r>
       <r>   -27.1143     0.0000    12.0000 </r>
       <r>   -26.8442     0.0000    12.0000 </r>
       <r>   -26.5741     0.0000    12.0000 </r>
       <r>   -26.3040     0.0000    12.0000 </r>
       <r>   -26.0339     0.0000    12.0000 </r>
       <r>   -25.7638     0.0000    12.0000 </r>
       <r>   -25.4937     0.0000    12.0000 </r>
       <r>   -25.2236     0.0000    12.0000 </r>
       <r>   -24.9535     0.0000    12.0000 </r>
       <r>   -24.6833     0.0000    12.0000 </r>
       <r>   -24.4132     0.0000    12.0000 </r>
       <r>   -24.1431     0.0000    12.0000 </r>
       <r>   -23.8730     0.0000    12.0000 </r>
       <r>   -23.6029     0.0000    12.0000 </r>
       <r>   -23.3328     0.0000    12.0000 </r>
       <r>   -23.0627     0.0000    12.0000 </r>
       <r>   -22.7926     0.0000    12.0000 </r>
       <r>   -22.5225     0.0000    12.0000 </r>
       <r>   -22.2524     0.0000    12.0000 </r>
       <r>   -21.9823     0.0000    12.0000 </r>
       <r>   -21.7122     0.0000    12.0000 </r>
       <r>   -21.4420     0.0000    12.0000 </r>
       <r>   -21.1719     0.0000    12.0000 </r>
       <r>   -20.9018     0.0000    12.0000 </r>
       <r>   -20.6317     0.0000    12.0000 </r>
       <r>   -20.3616     0.0000    12.0000 </r>
       <r>   -20.0915     0.0000    12.0000 </r>
       <r>   -19.8214     0.0000    12.0000 </r>
       <r>   -19.5513     0.0000    12.0000 </r>
       <r>   -19.2812     0.0000    12.0000 </r>
       <r>   -19.0111     0.0000    12.0000 </r>
       <r>   -18.7410     0.0000    12.0000 </r>
       <r>   -18.4709     0.0000    12.0000 </r>
       <r>   -18.2007     0.0000    12.0000 </r>
       <r>   -17.9306     0.0000    12.0000 </r>
       <r>   -17.6605     0.0000    12.0000 </r>
       <r>   -17.3904     0.0000    12.0000 </r>
       <r>   -17.1203     0.0000    12.0000 </r>
       <r>   -16.8502     0.0000    12.0000 </r>
       <r>   -16.5801     0.0000    12.0000 </r>
       <r>   -16.3100     0.0000    12.0000 </r>
       <r>   -16.0399     0.0000    12.0000 </r>
       <r>   -15.7698     0.0000    12.0000 </r>
       <r>   -15.4997     0.0000    12.0000 </r>
       <r>   -15.2296     0.0000    12.0000 </r>
       <r>   -14.9595     0.0000    12.0000 </r>
       <r>   -14.6893     0.0000    12.0000 </r>
       <r>   -14.4192     0.0000    12.0000 </r>
       <r>   -14.1491     0.0000    12.0000 </r>
       <r>   -13.8790     0.0000    12.0000 </r>
       <r>   -13.6089     0.0000    12.0000 </r>
       <r>   -13.3388     0.0000    12.0000 </r>
       <r>   -13.0687     0.0000    12.0000 </r>
       <r>   -12.7986     0.0000    12.0000 </r>
       <r>   -12.5285     0.0000    12.0000 </r>
       <r>   -12.2584     0.0000    12.0000 </r>
       <r>   -11.9883     0.0000    12.0000 </r>
       <r>   -11.7182     0.0000    12.0000 </r>
       <r>   -11.4480     0.0000    12.0000 </r>
       <r>   -11.1779     0.0000    12.0000 </r>
       <r>   -10.9078     0.0000    12.0000 </r>
       <r>   -10.6377     0.0000    12.0000 </r>
       <r>   -10.3676     0.0000    12.0000 </r>
       <r>   -10.0975     0.0000    12.0000 </r>
       <r>    -9.8274     0.0000    12.0000 </r>
       <r>    -9.5573     0.0000    12.0000 </r>
       <r>    -9.2872     0.0000    12.0000 </r>
       <r>    -9.0171     0.0000    12.0000 </r>
       <r>    -8.7470     0.0000    12.0000 </r>
       <r>    -8.4769     0.0000    12.0000 </r>
       <r>    -8.2067     0.0000    12.0000 </r>
       <r>    -7.9366     0.0000    12.0000 </r>
       <r>    -7.6665     0.0000    12.0000 </r>
       <r>    -7.3964     0.0000    12.0000 </r>
       <r>    -7.1263     0.0000    12.0000 </r>
       <r>    -6.8562     0.0000    12.0000 </r>
       <r>    -6.5861     0.0000    12.0000 </r>
       <r>    -6.3160     0.0000    12.0000 </r>
       <r>    -6.0459     0.0000    12.0000 </r>
       <r>    -5.7758     0.0000    12.0000 </r>
       <r>    -5.5057     0.0000    12.0000 </r>
       <r>    -5.2356     0.0000    12.0000 </r>
       <r>    -4.9655     0.0000    12.0000 </r>
       <r>    -4.6953     0.0000    12.0000 </r>
       <r>    -4.4252     0.0000    12.0000 </r>
       <r>    -4.1551     0.0000    12.0000 </r>
       <r>    -3.8850     0.0000    12.0000 </r>
       <r>    -3.6149     0.0000    12.0000 </r>
       <r>    -3.3448     0.0000    12.0000 </r>
       <r>    -3.0747     0.0000    12.0000 </r>
       <r>    -2.8046     0.0000    12.0000 </r>
       <r>    -2.5345     0.0000    12.0000 </r>
       <r>    -2.2644     0.0446    12.0021 </r>
       <r>    -1.9943     0.2021    12.0436 </r>
       <r>    -1.7242     0.2918    12.1099 </r>
       <r>    -1.4540     0.3923    12.2023 </r>
       <r>    -1.1839     0.5286    12.3215 </r>
       <r>    -0.9138     0.7209    12.4972 </r>
       <r>    -0.6437     0.7234    12.6860 </r>
       <r>    -0.3736     0.6217    12.8992 </r>
       <r>    -0.1035     0.1218    12.9944 </r>
       <r>     0.1666     0.0000    13.0000 </r>
       <r>     0.4367     0.9462    13.0647 </r>
       <r>     0.7068     1.0417    13.4076 </r>
       <r>     0.9769     0.5612    13.5997 </r>
       <r>     1.2470     0.3704    13.7264 </r>
       <r>     1.5171     0.2360    13.8060 </r>
       <r>     1.7873     2.0846    13.9232 </r>
       <r>     2.0574     0.9661    14.1750 </r>
       <r>     2.3275     0.8357    14.4249 </r>
       <r>     2.5976     0.8309    14.6498 </r>
       <r>     2.8677     0.9753    14.8900 </r>
       <r>     3.1378     0.9200    15.1835 </r>
       <r>     3.4079     0.9682    15.4291 </r>
       <r>     3.6780     1.1152    15.6781 </r>
       <r>     3.9481     2.5488    16.0892 </r>
       <r>     4.2182     1.0006    16.8713 </r>
       <r>     4.4883     0.4860    17.0546 </r>
       <r>     4.7584     1.3743    17.2133 </r>
       <r>     5.0286     1.9839    17.9331 </r>
       <r>     5.2987     3.6184    18.7466 </r>
       <r>     5.5688     5.7061    19.8019 </r>
       <r>     5.8389     3.8476    21.3115 </r>
       <r>     6.1090     4.7745    22.1009 </r>
       <r>     6.3791    13.1944    24.4010 </r>
       <r>     6.6492    13.3160    26.7664 </r>
       <r>     6.9193     3.0960    28.2388 </r>
       <r>     7.1894     5.3312    29.6064 </r>
       <r>     7.4595     9.8353    31.9710 </r>
       <r>     7.7296     6.2497    34.9719 </r>
       <r>     7.9997     1.3934    36.1830 </r>
       <r>     8.2698     1.7077    36.6678 </r>
       <r>     8.5400     3.1166    37.8288 </r>
       <r>     8.8101     1.6853    38.3914 </r>
       <r>     9.0802     2.0017    38.8657 </r>
       <r>     9.3503     1.9153    39.3927 </r>
       <r>     9.6204     1.0973    39.8077 </r>
       <r>     9.8905     1.4087    40.1429 </r>
       <r>    10.1606     1.2187    40.5039 </r>
       <r>    10.4307     1.2146    40.8601 </r>
       <r>    10.7008     0.7064    41.1633 </r>
       <r>    10.9709     1.2108    41.3802 </r>
       <r>    11.2410     2.8369    41.9956 </r>
       <r>    11.5111     1.2834    42.4530 </r>
       <r>    11.7813     0.8372    42.7364 </r>
       <r>    12.0514     0.6192    42.9249 </r>
       <r>    12.3215     0.6590    43.0907 </r>
       <r>    12.5916     1.3706    43.3698 </r>
       <r>    12.8617     2.3671    43.8803 </r>
       <r>    13.1318     2.1047    44.5421 </r>
       <r>    13.4019     2.6683    45.1557 </r>
       <r>    13.6720     1.5637    45.5909 </r>
       <r>    13.9421     1.0912    45.9633 </r>
       <r>    14.2122     0.7255    46.1650 </r>
       <r>    14.4823     0.9443    46.3952 </r>
       <r>    14.7524     1.1393    46.6668 </r>
       <r>    15.0226     1.2379    46.9855 </r>
       <r>    15.2927     1.9040    47.3926 </r>
       <r>    15.5628     1.8410    48.0939 </r>
       <r>    15.8329     1.8110    48.5154 </r>
       <r>    16.1030     1.7444    49.0345 </r>
       <r>    16.3731     1.3096    49.4698 </r>
       <r>    16.6432     1.7332    49.8693 </r>
       <r>    16.9133     1.6183    50.3838 </r>
       <r>    17.1834     2.1467    50.8165 </r>
       <r>    17.4535     1.6584    51.3247 </r>
       <r>    17.7236     0.6744    51.6205 </r>
       <r>    17.9937     0.4165    51.7517 </r>
       <r>    18.2639     0.3191    51.8508 </r>
       <r>    18.5340     0.2286    51.9247 </r>
       <r>    18.8041     0.3027    51.9796 </r>
       <r>    19.0742     0.0000    52.0000 </r>
       <r>    19.3443     0.0000    52.0000 </r>
       <r>    19.6144     0.0000    52.0000 </r>
       <r>    19.8845     0.0000    52.0000 </r>
       <r>    20.1546     0.0000    52.0000 </r>
       <r>    20.4247     0.0000    52.0000 </r>
       <r>    20.6948     0.0000    52.0000 </r>
       <r>    20.9649     0.0000    52.0000 </r>
       <r>    21.2350     0.0000    52.0000 </r>
       <r>    21.5051     0.0000    52.0000 </r>
       <r>    21.7753     0.0000    52.0000 </r>
       <r>    22.0454     0.0000    52.0000 </r>
       <r>    22.3155     0.0000    52.0000 </r>
       <r>    22.5856     0.0000    52.0000 </r>
      </set>
      <set comment="spin 2">
       <r>   -58.4469     0.0000     0.0000 </r>
       <r>   -58.1768     0.0000     0.0000 </r>
       <r>   -57.9066     0.0000     0.0000 </r>
       <r>   -57.6365     0.0000     0.0000 </r>
       <r>   -57.3664     0.0000     0.0000 </r>
       <r>   -57.0963     0.0000     0.0000 </r>
       <r>   -56.8262     0.0000     0.0000 </r>
       <r>   -56.5561     0.0000     0.0000 </r>
       <r>   -56.2860     0.0000     0.0000 </r>
       <r>   -56.0159     0.0000     0.0000 </r>
       <r>   -55.7458     0.0000     0.0000 </r>
       <r>   -55.4757     0.0000     0.0000 </r>
       <r>   -55.2056     0.0000     0.0000 </r>
       <r>   -54.9355     0.0000     0.0000 </r>
       <r>   -54.6654     0.0000     8.0000 </r>
       <r>   -54.3952     0.0000    12.0000 </r>
       <r>   -54.1251     0.0000    12.0000 </r>
       <r>   -53.8550     0.0000    12.0000 </r>
       <r>   -53.5849     0.0000    12.0000 </r>
       <r>   -53.3148     0.0000    12.0000 </r>
       <r>   -53.0447     0.0000    12.0000 </r>
       <r>   -52.7746     0.0000    12.0000 </r>
       <r>   -52.5045     0.0000    12.0000 </r>
       <r>   -52.2344     0.0000    12.0000 </r>
       <r>   -51.9643     0.0000    12.0000 </r>
       <r>   -51.6942     0.0000    12.0000 </r>
       <r>   -51.4241     0.0000    12.0000 </r>
       <r>   -51.1539     0.0000    12.0000 </r>
       <r>   -50.8838     0.0000    12.0000 </r>
       <r>   -50.6137     0.0000    12.0000 </r>
       <r>   -50.3436     0.0000    12.0000 </r>
       <r>   -50.0735     0.0000    12.0000 </r>
       <r>   -49.8034     0.0000    12.0000 </r>
       <r>   -49.5333     0.0000    12.0000 </r>
       <r>   -49.2632     0.0000    12.0000 </r>
       <r>   -48.9931     0.0000    12.0000 </r>
       <r>   -48.7230     0.0000    12.0000 </r>
       <r>   -48.4529     0.0000    12.0000 </r>
       <r>   -48.1828     0.0000    12.0000 </r>
       <r>   -47.9126     0.0000    12.0000 </r>
       <r>   -47.6425     0.0000    12.0000 </r>
       <r>   -47.3724     0.0000    12.0000 </r>
       <r>   -47.1023     0.0000    12.0000 </r>
       <r>   -46.8322     0.0000    12.0000 </r>
       <r>   -46.5621     0.0000    12.0000 </r>
       <r>   -46.2920     0.0000    12.0000 </r>
       <r>   -46.0219     0.0000    12.0000 </r>
       <r>   -45.7518     0.0000    12.0000 </r>
       <r>   -45.4817     0.0000    12.0000 </r>
       <r>   -45.2116     0.0000    12.0000 </r>
       <r>   -44.9415     0.0000    12.0000 </r>
       <r>   -44.6713     0.0000    12.0000 </r>
       <r>   -44.4012     0.0000    12.0000 </r>
       <r>   -44.1311     0.0000    12.0000 </r>
       <r>   -43.8610     0.0000    12.0000 </r>
       <r>   -43.5909     0.0000    12.0000 </r>
       <r>   -43.3208     0.0000    12.0000 </r>
       <r>   -43.0507     0.0000    12.0000 </r>
       <r>   -42.7806     0.0000    12.0000 </r>
       <r>   -42.5105     0.0000    12.0000 </r>
       <r>   -42.2404     0.0000    12.0000 </r>
       <r>   -41.9703     0.0000    12.0000 </r>
       <r>   -41.7002     0.0000    12.0000 </r>
       <r>   -41.4301     0.0000    12.0000 </r>
       <r>   -41.1599     0.0000    12.0000 </r>
       <r>   -40.8898     0.0000    12.0000 </r>
       <r>   -40.6197     0.0000    12.0000 </r>
       <r>   -40.3496     0.0000    12.0000 </r>
       <r>   -40.0795     0.0000    12.0000 </r>
       <r>   -39.8094     0.0000    12.0000 </r>
       <r>   -39.5393     0.0000    12.0000 </r>
       <r>   -39.2692     0.0000    12.0000 </r>
       <r>   -38.9991     0.0000    12.0000 </r>
       <r>   -38.7290     0.0000    12.0000 </r>
       <r>   -38.4589     0.0000    12.0000 </r>
       <r>   -38.1888     0.0000    12.0000 </r>
       <r>   -37.9186     0.0000    12.0000 </r>
       <r>   -37.6485     0.0000    12.0000 </r>
       <r>   -37.3784     0.0000    12.0000 </r>
       <r>   -37.1083     0.0000    12.0000 </r>
       <r>   -36.8382     0.0000    12.0000 </r>
       <r>   -36.5681     0.0000    12.0000 </r>
       <r>   -36.2980     0.0000    12.0000 </r>
       <r>   -36.0279     0.0000    12.0000 </r>
       <r>   -35.7578     0.0000    12.0000 </r>
       <r>   -35.4877     0.0000    12.0000 </r>
       <r>   -35.2176     0.0000    12.0000 </r>
       <r>   -34.9475     0.0000    12.0000 </r>
       <r>   -34.6773     0.0000    12.0000 </r>
       <r>   -34.4072     0.0000    12.0000 </r>
       <r>   -34.1371     0.0000    12.0000 </r>
       <r>   -33.8670     0.0000    12.0000 </r>
       <r>   -33.5969     0.0000    12.0000 </r>
       <r>   -33.3268     0.0000    12.0000 </r>
       <r>   -33.0567     0.0000    12.0000 </r>
       <r>   -32.7866     0.0000    12.0000 </r>
       <r>   -32.5165     0.0000    12.0000 </r>
       <r>   -32.2464     0.0000    12.0000 </r>
       <r>   -31.9763     0.0000    12.0000 </r>
       <r>   -31.7062     0.0000    12.0000 </r>
       <r>   -31.4360     0.0000    12.0000 </r>
       <r>   -31.1659     0.0000    12.0000 </r>
       <r>   -30.8958     0.0000    12.0000 </r>
       <r>   -30.6257     0.0000    12.0000 </r>
       <r>   -30.3556     0.0000    12.0000 </r>
       <r>   -30.0855     0.0000    12.0000 </r>
       <r>   -29.8154     0.0000    12.0000 </r>
       <r>   -29.5453     0.0000    12.0000 </r>
       <r>   -29.2752     0.0000    12.0000 </r>
       <r>   -29.0051     0.0000    12.0000 </r>
       <r>   -28.7350     0.0000    12.0000 </r>
       <r>   -28.4649     0.0000    12.0000 </r>
       <r>   -28.1948     0.0000    12.0000 </r>
       <r>   -27.9246     0.0000    12.0000 </r>
       <r>   -27.6545     0.0000    12.0000 </r>
       <r>   -27.3844     0.0000    12.0000 </r>
       <r>   -27.1143     0.0000    12.0000 </r>
       <r>   -26.8442     0.0000    12.0000 </r>
       <r>   -26.5741     0.0000    12.0000 </r>
       <r>   -26.3040     0.0000    12.0000 </r>
       <r>   -26.0339     0.0000    12.0000 </r>
       <r>   -25.7638     0.0000    12.0000 </r>
       <r>   -25.4937     0.0000    12.0000 </r>
       <r>   -25.2236     0.0000    12.0000 </r>
       <r>   -24.9535     0.0000    12.0000 </r>
       <r>   -24.6833     0.0000    12.0000 </r>
       <r>   -24.4132     0.0000    12.0000 </r>
       <r>   -24.1431     0.0000    12.0000 </r>
       <r>   -23.8730     0.0000    12.0000 </r>
       <r>   -23.6029     0.0000    12.0000 </r>
       <r>   -23.3328     0.0000    12.0000 </r>
       <r>   -23.0627     0.0000    12.0000 </r>
       <r>   -22.7926     0.0000    12.0000 </r>
       <r>   -22.5225     0.0000    12.0000 </r>
       <r>   -22.2524     0.0000    12.0000 </r>
       <r>   -21.9823     0.0000    12.0000 </r>
       <r>   -21.7122     0.0000    12.0000 </r>
       <r>   -21.4420     0.0000    12.0000 </r>
       <r>   -21.1719     0.0000    12.0000 </r>
       <r>   -20.9018     0.0000    12.0000 </r>
       <r>   -20.6317     0.0000    12.0000 </r>
       <r>   -20.3616     0.0000    12.0000 </r>
       <r>   -20.0915     0.0000    12.0000 </r>
       <r>   -19.8214     0.0000    12.0000 </r>
       <r>   -19.5513     0.0000    12.0000 </r>
       <r>   -19.2812     0.0000    12.0000 </r>
       <r>   -19.0111     0.0000    12.0000 </r>
       <r>   -18.7410     0.0000    12.0000 </r>
       <r>   -18.4709     0.0000    12.0000 </r>
       <r>   -18.2007     0.0000    12.0000 </r>
       <r>   -17.9306     0.0000    12.0000 </r>
       <r>   -17.6605     0.0000    12.0000 </r>
       <r>   -17.3904     0.0000    12.0000 </r>
       <r>   -17.1203     0.0000    12.0000 </r>
       <r>   -16.8502     0.0000    12.0000 </r>
       <r>   -16.5801     0.0000    12.0000 </r>
       <r>   -16.3100     0.0000    12.0000 </r>
       <r>   -16.0399     0.0000    12.0000 </r>
       <r>   -15.7698     0.0000    12.0000 </r>
       <r>   -15.4997     0.0000    12.0000 </r>
       <r>   -15.2296     0.0000    12.0000 </r>
       <r>   -14.9595     0.0000    12.0000 </r>
       <r>   -14.6893     0.0000    12.0000 </r>
       <r>   -14.4192     0.0000    12.0000 </r>
       <r>   -14.1491     0.0000    12.0000 </r>
       <r>   -13.8790     0.0000    12.0000 </r>
       <r>   -13.6089     0.0000    12.0000 </r>
       <r>   -13.3388     0.0000    12.0000 </r>
       <r>   -13.0687     0.0000    12.0000 </r>
       <r>   -12.7986     0.0000    12.0000 </r>
       <r>   -12.5285     0.0000    12.0000 </r>
       <r>   -12.2584     0.0000    12.0000 </r>
       <r>   -11.9883     0.0000    12.0000 </r>
       <r>   -11.7182     0.0000    12.0000 </r>
       <r>   -11.4480     0.0000    12.0000 </r>
       <r>   -11.1779     0.0000    12.0000 </r>
       <r>   -10.9078     0.0000    12.0000 </r>
       <r>   -10.6377     0.0000    12.0000 </r>
       <r>   -10.3676     0.0000    12.0000 </r>
       <r>   -10.0975     0.0000    12.0000 </r>
       <r>    -9.8274     0.0000    12.0000 </r>
       <r>    -9.5573     0.0000    12.0000 </r>
       <r>    -9.2872     0.0000    12.0000 </r>
       <r>    -9.0171     0.0000    12.0000 </r>
       <r>    -8.7470     0.0000    12.0000 </r>
       <r>    -8.4769     0.0000    12.0000 </r>
       <r>    -8.2067     0.0000    12.0000 </r>
       <r>    -7.9366     0.0000    12.0000 </r>
       <r>    -7.6665     0.0000    12.0000 </r>
       <r>    -7.3964     0.0000    12.0000 </r>
       <r>    -7.1263     0.0000    12.0000 </r>
       <r>    -6.8562     0.0000    12.0000 </r>
       <r>    -6.5861     0.0000    12.0000 </r>
       <r>    -6.3160     0.0000    12.0000 </r>
       <r>    -6.0459     0.0000    12.0000 </r>
       <r>    -5.7758     0.0000    12.0000 </r>
       <r>    -5.5057     0.0000    12.0000 </r>
       <r>    -5.2356     0.0000    12.0000 </r>
       <r>    -4.9655     0.0000    12.0000 </r>
       <r>    -4.6953     0.0000    12.0000 </r>
       <r>    -4.4252     0.0000    12.0000 </r>
       <r>    -4.1551     0.0000    12.0000 </r>
       <r>    -3.8850     0.0000    12.0000 </r>
       <r>    -3.6149     0.0000    12.0000 </r>
       <r>    -3.3448     0.0000    12.0000 </r>
       <r>    -3.0747     0.0000    12.0000 </r>
       <r>    -2.8046     0.0000    12.0000 </r>
       <r>    -2.5345     0.0000    12.0000 </r>
       <r>    -2.2644     0.0446    12.0021 </r>
       <r>    -1.9943     0.2021    12.0436 </r>
       <r>    -1.7242     0.2918    12.1099 </r>
       <r>    -1.4540     0.3923    12.2023 </r>
       <r>    -1.1839     0.5286    12.3215 </r>
       <r>    -0.9138     0.7209    12.4972 </r>
       <r>    -0.6437     0.7234    12.6860 </r>
       <r>    -0.3736     0.6217    12.8992 </r>
       <r>    -0.1035     0.1218    12.9944 </r>
       <r>     0.1666     0.0000    13.0000 </r>
       <r>     0.4367     0.9462    13.0647 </r>
       <r>     0.7068     1.0417    13.4076 </r>
       <r>     0.9769     0.5612    13.5997 </r>
       <r>     1.2470     0.3704    13.7264 </r>
       <r>     1.5171     0.2360    13.8060 </r>
       <r>     1.7873     2.0846    13.9232 </r>
       <r>     2.0574     0.9661    14.1750 </r>
       <r>     2.3275     0.8357    14.4249 </r>
       <r>     2.5976     0.8309    14.6498 </r>
       <r>     2.8677     0.9753    14.8900 </r>
       <r>     3.1378     0.9200    15.1835 </r>
       <r>     3.4079     0.9682    15.4291 </r>
       <r>     3.6780     1.1152    15.6781 </r>
       <r>     3.9481     2.5488    16.0892 </r>
       <r>     4.2182     1.0006    16.8713 </r>
       <r>     4.4883     0.4860    17.0546 </r>
       <r>     4.7584     1.3743    17.2133 </r>
       <r>     5.0286     1.9839    17.9331 </r>
       <r>     5.2987     3.6184    18.7466 </r>
       <r>     5.5688     5.7061    19.8019 </r>
       <r>     5.8389     3.8476    21.3115 </r>
       <r>     6.1090     4.7745    22.1009 </r>
       <r>     6.3791    13.1944    24.4010 </r>
       <r>     6.6492    13.3160    26.7664 </r>
       <r>     6.9193     3.0960    28.2388 </r>
       <r>     7.1894     5.3312    29.6064 </r>
       <r>     7.4595     9.8353    31.9710 </r>
       <r>     7.7296     6.2497    34.9719 </r>
       <r>     7.9997     1.3934    36.1830 </r>
       <r>     8.2698     1.7077    36.6678 </r>
       <r>     8.5400     3.1166    37.8288 </r>
       <r>     8.8101     1.6853    38.3914 </r>
       <r>     9.0802     2.0017    38.8657 </r>
       <r>     9.3503     1.9153    39.3927 </r>
       <r>     9.6204     1.0973    39.8077 </r>
       <r>     9.8905     1.4087    40.1429 </r>
       <r>    10.1606     1.2187    40.5039 </r>
       <r>    10.4307     1.2146    40.8601 </r>
       <r>    10.7008     0.7064    41.1633 </r>
       <r>    10.9709     1.2108    41.3802 </r>
       <r>    11.2410     2.8369    41.9956 </r>
       <r>    11.5111     1.2834    42.4530 </r>
       <r>    11.7813     0.8372    42.7364 </r>
       <r>    12.0514     0.6192    42.9249 </r>
       <r>    12.3215     0.6590    43.0907 </r>
       <r>    12.5916     1.3706    43.3698 </r>
       <r>    12.8617     2.3671    43.8803 </r>
       <r>    13.1318     2.1047    44.5421 </r>
       <r>    13.4019     2.6683    45.1557 </r>
       <r>    13.6720     1.5637    45.5909 </r>
       <r>    13.9421     1.0912    45.9633 </r>
       <r>    14.2122     0.7255    46.1650 </r>
       <r>    14.4823     0.9443    46.3952 </r>
       <r>    14.7524     1.1393    46.6668 </r>
       <r>    15.0226     1.2379    46.9855 </r>
       <r>    15.2927     1.9040    47.3926 </r>
       <r>    15.5628     1.8410    48.0939 </r>
       <r>    15.8329     1.8110    48.5154 </r>
       <r>    16.1030     1.7444    49.0345 </r>
       <r>    16.3731     1.3096    49.4698 </r>
       <r>    16.6432     1.7332    49.8693 </r>
       <r>    16.9133     1.6183    50.3838 </r>
       <r>    17.1834     2.1467    50.8165 </r>
       <r>    17.4535     1.6584    51.3247 </r>
       <r>    17.7236     0.6744    51.6205 </r>
       <r>    17.9937     0.4165    51.7517 </r>
       <r>    18.2639     0.3191    51.8508 </r>
       <r>    18.5340     0.2286    51.9247 </r>
       <r>    18.8041     0.3027    51.9796 </r>
       <r>    19.0742     0.0000    52.0000 </r>
       <r>    19.3443     0.0000    52.0000 </r>
       <r>    19.6144     0.0000    52.0000 </r>
       <r>    19.8845     0.0000    52.0000 </r>
       <r>    20.1546     0.0000    52.0000 </r>
       <r>    20.4247     0.0000    52.0000 </r>
       <r>    20.6948     0.0000    52.0000 </r>
       <r>    20.9649     0.0000    52.0000 </r>
       <r>    21.2350     0.0000    52.0000 </r>
       <r>    21.5051     0.0000    52.0000 </r>
       <r>    21.7753     0.0000    52.0000 </r>
       <r>    22.0454     0.0000    52.0000 </r>
       <r>    22.3155     0.0000    52.0000 </r>
       <r>    22.5856     0.0000    52.0000 </r>
      </set>
     </set>
    </array>
   </total>
  </dos>
 </calculation>
 <structure name="finalpos" >
  <crystal>
   <varray name="basis" >
    <v>      -3.69580605       0.00000000      -3.69580605 </v>
    <v>       0.00000000      -3.69580605      -3.69580605 </v>
    <v>      -3.69580605      -3.69580605       0.00000000 </v>
   </varray>
   <i name="volume">    100.96189897 </i>
   <varray name="rec_basis" >
    <v>      -0.13528848       0.13528848      -0.13528848 </v>
    <v>       0.13528848      -0.13528848      -0.13528848 </v>
    <v>      -0.13528848      -0.13528848       0.13528848 </v>
   </varray>
  </crystal>
  <varray name="positions" >
   <v>       0.00000000       0.00000000       0.00000000 </v>
   <v>       0.00000000       0.50000000       0.00000000 </v>
   <v>       0.50000000       0.00000000       0.00000000 </v>
   <v>       0.00000000       0.00000000       0.50000000 </v>
   <v>       0.50000000       0.50000000       0.00000000 </v>
   <v>       0.00000000       0.50000000       0.50000000 </v>
   <v>       0.50000000       0.00000000       0.50000000 </v>
   <v>       0.50000000       0.50000000       0.50000000 </v>
  </varray>
 </structure>
</modeling>
