 running on   24 total cores
 distrk:  each k-point on   24 cores,    1 groups
 distr:  one band on    6 cores,    4 groups
 using from now: INCAR     
 vasp.5.4.4.18Apr17-6-g9f103f2a35 (build Jan 03 2018 06:08:52) complex          
  
 POSCAR found :  2 types and       8 ions
 scaLAPACK will be used
 WARNING: for PREC=h ENMAX is automatically increase by 25 %
        this was not the case for versions prior to vasp.4.4
 WARNING: for PREC=h ENMAX is automatically increase by 25 %
        this was not the case for versions prior to vasp.4.4
 LDA part: xc-table for Pade appr. of Perdew
 POSCAR, INCAR and KPOINTS ok, starting setup
 FFT: planning ...
 WAVECAR not read
 entering main loop
       N       E                     dE             d eps       ncg     rms          rms(c)
DAV:   1     0.860323051919E+03    0.86032E+03   -0.44087E+04  2584   0.164E+03
DAV:   2     0.128296679033E+02   -0.84749E+03   -0.81191E+03  2100   0.522E+02
DAV:   3    -0.441685533389E+02   -0.56998E+02   -0.52546E+02  2456   0.151E+02
DAV:   4    -0.461509906676E+02   -0.19824E+01   -0.19578E+01  2344   0.261E+01
DAV:   5    -0.462021596754E+02   -0.51169E-01   -0.51153E-01  2420   0.439E+00    0.302E+01
DAV:   6    -0.651675680407E+02   -0.18965E+02   -0.17634E+02  2392   0.142E+02    0.414E+01
DAV:   7    -0.396816942297E+02    0.25486E+02   -0.61387E+01  2336   0.912E+01    0.657E+00
DAV:   8    -0.393873973944E+02    0.29430E+00   -0.48540E+00  2640   0.149E+01    0.227E+00
DAV:   9    -0.393442423095E+02    0.43155E-01   -0.45903E-01  2352   0.651E+00    0.127E+00
DAV:  10    -0.393284885336E+02    0.15754E-01   -0.98079E-02  2476   0.317E+00    0.434E-01
DAV:  11    -0.393275035996E+02    0.98493E-03   -0.55500E-03  2524   0.503E-01    0.282E-01
DAV:  12    -0.393265555826E+02    0.94802E-03   -0.26149E-03  2952   0.404E-01    0.474E-02
DAV:  13    -0.393265905222E+02   -0.34940E-04   -0.18543E-04  2316   0.795E-02    0.250E-02
DAV:  14    -0.393265987539E+02   -0.82316E-05   -0.21428E-05  2648   0.330E-02    0.237E-02
DAV:  15    -0.393266044003E+02   -0.56464E-05   -0.19008E-05  2660   0.322E-02    0.144E-02
DAV:  16    -0.393266087168E+02   -0.43165E-05   -0.61479E-06  2728   0.171E-02    0.133E-02
DAV:  17    -0.393266112348E+02   -0.25181E-05   -0.18390E-05  2548   0.329E-02    0.570E-03
DAV:  18    -0.393266139387E+02   -0.27039E-05   -0.15205E-06  2496   0.101E-02    0.599E-03
DAV:  19    -0.393266146450E+02   -0.70630E-06   -0.15484E-06  2512   0.953E-03    0.341E-03
DAV:  20    -0.393266150820E+02   -0.43698E-06   -0.27453E-06  2644   0.125E-02    0.193E-03
DAV:  21    -0.393266154998E+02   -0.41783E-06   -0.22242E-07  2412   0.365E-03    0.156E-03
DAV:  22    -0.393266155606E+02   -0.60834E-07   -0.32141E-07  2312   0.438E-03    0.743E-04
DAV:  23    -0.393266155951E+02   -0.34424E-07   -0.52839E-08  1660   0.161E-03    0.536E-04
DAV:  24    -0.393266156071E+02   -0.12005E-07   -0.39568E-08  1536   0.150E-03    0.306E-04
DAV:  25    -0.393266156155E+02   -0.84092E-08   -0.54115E-09  1176   0.573E-04
   1 F= -.39326616E+02 E0= -.39326459E+02  d E =-.393266E+02  mag=     0.0005
 curvature:   0.00 expect dE= 0.000E+00 dE for cont linesearch  0.000E+00
 trial: gam= 0.00000 g(F)=  0.109E-57 g(S)=  0.445E+01 ort = 0.000E+00 (trialstep = 0.100E+01)
 search vector abs. value=  0.445E+01
 bond charge predicted
       N       E                     dE             d eps       ncg     rms          rms(c)
DAV:   1    -0.225368154161E+03   -0.18604E+03   -0.23981E+03  2088   0.578E+02    0.103E+02
DAV:   2    -0.952089398219E+02    0.13016E+03   -0.10922E+03  2368   0.246E+02    0.634E+01
DAV:   3    -0.698095071941E+02    0.25399E+02   -0.34162E+02  2352   0.172E+02    0.475E+01
DAV:   4    -0.410986907346E+02    0.28711E+02   -0.96954E+01  2332   0.963E+01    0.440E+00
DAV:   5    -0.415045204793E+02   -0.40583E+00   -0.11933E+01  2148   0.315E+01    0.139E+01
DAV:   6    -0.397515056924E+02    0.17530E+01   -0.53974E+00  2480   0.196E+01    0.129E+00
DAV:   7    -0.397149139295E+02    0.36592E-01   -0.19852E-01  2252   0.214E+00    0.429E-01
DAV:   8    -0.397105151271E+02    0.43988E-02   -0.17389E-02  2508   0.547E-01    0.104E-01
DAV:   9    -0.397106626448E+02   -0.14752E-03   -0.22492E-03  2264   0.297E-01    0.849E-02
DAV:  10    -0.397106420211E+02    0.20624E-04   -0.11077E-04  2736   0.571E-02    0.793E-02
DAV:  11    -0.397105922698E+02    0.49751E-04   -0.47774E-05  2372   0.497E-02    0.480E-02
DAV:  12    -0.397105812303E+02    0.11040E-04   -0.57998E-05  2468   0.461E-02    0.212E-02
DAV:  13    -0.397105904946E+02   -0.92643E-05   -0.94096E-06  2664   0.222E-02    0.210E-02
DAV:  14    -0.397105844866E+02    0.60080E-05   -0.15794E-05  2448   0.286E-02    0.538E-03
DAV:  15    -0.397105871301E+02   -0.26435E-05   -0.14575E-06  2208   0.983E-03    0.871E-03
DAV:  16    -0.397105861348E+02    0.99533E-06   -0.15211E-06  2412   0.915E-03    0.198E-03
DAV:  17    -0.397105863552E+02   -0.22042E-06   -0.32133E-07  2412   0.377E-03    0.308E-03
DAV:  18    -0.397105862753E+02    0.79832E-07   -0.16468E-07  2116   0.317E-03    0.146E-03
DAV:  19    -0.397105862681E+02    0.72741E-08   -0.33710E-08  1452   0.128E-03
   2 F= -.39710586E+02 E0= -.39707921E+02  d E =-.383971E+00  mag=     0.0003
 trial-energy change:   -0.383971  1 .order   -0.631626   -4.448402    3.185150
 step:   0.5343(harm=  0.5827)  dis= 0.00000  next Energy=   -40.477247 (dE=-0.115E+01)
 bond charge predicted
       N       E                     dE             d eps       ncg     rms          rms(c)
DAV:   1    -0.111111173153E+03   -0.71401E+02   -0.58977E+02  2288   0.220E+02    0.868E+01
DAV:   2    -0.185964230899E+03   -0.74853E+02   -0.11811E+03  2272   0.372E+02    0.747E+01
DAV:   3    -0.532147350586E+02    0.13275E+03   -0.38656E+02  2328   0.163E+02    0.247E+01
DAV:   4    -0.559913851749E+02   -0.27767E+01   -0.53154E+00  2168   0.127E+01    0.269E+01
DAV:   5    -0.540582404499E+02    0.19331E+01   -0.25039E-01  2224   0.296E+00    0.263E+01
DAV:   6    -0.429363825349E+02    0.11122E+02   -0.68206E+01  2592   0.586E+01    0.129E+01
DAV:   7    -0.413346850737E+02    0.16017E+01   -0.55776E+00  2320   0.116E+01    0.507E+00
DAV:   8    -0.407243904734E+02    0.61029E+00   -0.60187E-01  2520   0.364E+00    0.245E+00
DAV:   9    -0.405098344173E+02    0.21456E+00   -0.21424E-01  2216   0.211E+00    0.153E+00
DAV:  10    -0.404316433163E+02    0.78191E-01   -0.11817E-01  2216   0.149E+00    0.104E+00
DAV:  11    -0.404209211862E+02    0.10722E-01   -0.60633E-02  2376   0.201E+00    0.288E-01
DAV:  12    -0.404217430888E+02   -0.82190E-03   -0.16523E-03  2176   0.233E-01    0.324E-01
DAV:  13    -0.404192883809E+02    0.24547E-02   -0.33958E-03  2484   0.288E-01    0.840E-02
DAV:  14    -0.404191841049E+02    0.10428E-03   -0.59733E-04  2472   0.109E-01    0.254E-02
DAV:  15    -0.404191877124E+02   -0.36075E-05   -0.57385E-05  2228   0.398E-02    0.289E-02
DAV:  16    -0.404192072827E+02   -0.19570E-04   -0.19896E-05  2804   0.351E-02    0.470E-02
DAV:  17    -0.404192093706E+02   -0.20879E-05   -0.39245E-06  2468   0.130E-02    0.530E-02
DAV:  18    -0.404192033727E+02    0.59979E-05   -0.99394E-06  2420   0.233E-02    0.473E-02
DAV:  19    -0.404191913047E+02    0.12068E-04   -0.10758E-04  2720   0.845E-02    0.182E-02
DAV:  20    -0.404191887448E+02    0.25598E-05   -0.12378E-05  2328   0.288E-02    0.341E-03
DAV:  21    -0.404191890897E+02   -0.34493E-06   -0.81436E-07  2392   0.617E-03    0.374E-03
DAV:  22    -0.404191889558E+02    0.13398E-06   -0.57110E-07  2232   0.595E-03    0.325E-03
DAV:  23    -0.404191888238E+02    0.13194E-06   -0.62234E-07  2508   0.550E-03    0.196E-03
DAV:  24    -0.404191890288E+02   -0.20499E-06   -0.11792E-07  2260   0.250E-03    0.181E-03
DAV:  25    -0.404191890997E+02   -0.70884E-07   -0.39266E-07  2396   0.480E-03    0.846E-04
DAV:  26    -0.404191891725E+02   -0.72800E-07   -0.34492E-08  1696   0.161E-03    0.900E-04
DAV:  27    -0.404191891546E+02    0.17877E-07   -0.37812E-08  1524   0.153E-03    0.510E-04
DAV:  28    -0.404191891725E+02   -0.17861E-07   -0.94406E-09  1052   0.713E-04    0.268E-04
DAV:  29    -0.404191891781E+02   -0.56607E-08   -0.24918E-09  1052   0.406E-04
   3 F= -.40419189E+02 E0= -.40417402E+02  d E =-.109257E+01  mag=     0.0001
 curvature:  -0.29 expect dE=-0.172E-03 dE for cont linesearch -0.172E-03
 ZBRENT: interpolating
 opt :   0.5282  next Energy=   -40.419347 (dE=-0.109E+01)
 bond charge predicted
       N       E                     dE             d eps       ncg     rms          rms(c)
DAV:   1    -0.404321973637E+02   -0.13008E-01   -0.95914E-02  2208   0.318E+00    0.123E+00
DAV:   2    -0.404751818553E+02   -0.42984E-01   -0.33026E-01  2372   0.544E+00    0.234E+00
DAV:   3    -0.404193973759E+02    0.55784E-01   -0.15863E-01  2352   0.385E+00    0.137E-01
DAV:   4    -0.404193952107E+02    0.21652E-05   -0.25933E-03  2172   0.260E-01    0.613E-02
DAV:   5    -0.404193693788E+02    0.25832E-04   -0.82204E-05  2424   0.748E-02    0.144E-02
DAV:   6    -0.404193670660E+02    0.23128E-05   -0.56418E-06  2224   0.152E-02    0.127E-03
DAV:   7    -0.404193668308E+02    0.23517E-06   -0.42979E-07  2280   0.388E-03    0.136E-03
DAV:   8    -0.404193666244E+02    0.20643E-06   -0.32194E-08  1740   0.124E-03    0.713E-04
DAV:   9    -0.404193666096E+02    0.14794E-07   -0.40980E-09  1116   0.474E-04    0.905E-04
DAV:  10    -0.404193665583E+02    0.51248E-07   -0.21178E-08  1192   0.127E-03    0.604E-04
DAV:  11    -0.404193665580E+02    0.36016E-09   -0.86728E-09  1076   0.553E-04
   4 F= -.40419367E+02 E0= -.40417610E+02  d E =-.109275E+01  mag=    -0.0002
 curvature:  -0.26 expect dE=-0.346E-05 dE for cont linesearch -0.346E-05
 trial: gam= 0.00000 g(F)=  0.456E-57 g(S)=  0.131E-04 ort =-0.764E-02 (trialstep = 0.906E+00)
 search vector abs. value=  0.131E-04
 reached required accuracy - stopping structural energy minimisation
 writing wavefunctions
