 running on   24 total cores
 distrk:  each k-point on   24 cores,    1 groups
 distr:  one band on    6 cores,    4 groups
 using from now: INCAR     
 vasp.5.4.4.18Apr17-6-g9f103f2a35 (build Jan 03 2018 06:08:52) complex          
  
 POSCAR found :  2 types and       4 ions
 scaLAPACK will be used
 WARNING: for PREC=h ENMAX is automatically increase by 25 %
        this was not the case for versions prior to vasp.4.4
 WARNING: for PREC=h ENMAX is automatically increase by 25 %
        this was not the case for versions prior to vasp.4.4
 LDA part: xc-table for Pade appr. of Perdew
 POSCAR, INCAR and KPOINTS ok, starting setup
 FFT: planning ...
 WAVECAR not read
 entering main loop
       N       E                     dE             d eps       ncg     rms          rms(c)
DAV:   1     0.594156654938E+03    0.59416E+03   -0.31528E+04  6848   0.198E+03
DAV:   2     0.319646668158E+01   -0.59096E+03   -0.57174E+03  5960   0.612E+02
DAV:   3    -0.254601944633E+02   -0.28657E+02   -0.27254E+02  6640   0.160E+02
DAV:   4    -0.260359372551E+02   -0.57574E+00   -0.57475E+00  6304   0.223E+01
DAV:   5    -0.260518648366E+02   -0.15928E-01   -0.15927E-01  7000   0.384E+00    0.200E+01
DAV:   6    -0.303316934727E+02   -0.42798E+01   -0.73457E+01  6832   0.125E+02    0.262E+01
DAV:   7    -0.222470544939E+02    0.80846E+01   -0.22670E+01  6816   0.786E+01    0.844E+00
DAV:   8    -0.223507551983E+02   -0.10370E+00   -0.49440E+00  7224   0.372E+01    0.818E+00
DAV:   9    -0.220596483794E+02    0.29111E+00   -0.17178E+00  7240   0.258E+01    0.265E+00
DAV:  10    -0.220578362187E+02    0.18122E-02   -0.17494E-01  5960   0.496E+00    0.153E+00
DAV:  11    -0.220655565761E+02   -0.77204E-02   -0.35165E-02  7096   0.307E+00    0.130E+00
DAV:  12    -0.220597071269E+02    0.58494E-02   -0.25078E-02  7800   0.274E+00    0.231E-01
DAV:  13    -0.220607442533E+02   -0.10371E-02   -0.29373E-03  6568   0.571E-01    0.887E-02
DAV:  14    -0.220609110813E+02   -0.16683E-03   -0.28051E-04  7256   0.215E-01    0.894E-02
DAV:  15    -0.220608946625E+02    0.16419E-04   -0.12756E-04  7544   0.241E-01    0.272E-02
DAV:  16    -0.220608991575E+02   -0.44950E-05   -0.28063E-05  6840   0.813E-02    0.148E-02
DAV:  17    -0.220608994836E+02   -0.32605E-06   -0.39507E-06  7608   0.374E-02    0.799E-03
DAV:  18    -0.220608993757E+02    0.10780E-06   -0.72710E-07  6976   0.100E-02    0.574E-03
DAV:  19    -0.220608991423E+02    0.23343E-06   -0.28331E-07  7280   0.112E-02    0.157E-03
DAV:  20    -0.220608991127E+02    0.29608E-07   -0.82529E-08  6584   0.377E-03    0.433E-04
DAV:  21    -0.220608990971E+02    0.15621E-07   -0.77926E-09  3288   0.102E-03    0.363E-04
DAV:  22    -0.220608990954E+02    0.17153E-08   -0.16894E-09  3080   0.706E-04
   1 F= -.22060899E+02 E0= -.22060858E+02  d E =-.220609E+02  mag=    -0.1035
 curvature:   0.00 expect dE= 0.000E+00 dE for cont linesearch  0.000E+00
 trial: gam= 0.00000 g(F)=  0.793E-02 g(S)=  0.379E+00 ort = 0.000E+00 (trialstep = 0.100E+01)
 search vector abs. value=  0.387E+00
 bond charge predicted
       N       E                     dE             d eps       ncg     rms          rms(c)
DAV:   1    -0.454262031719E+02   -0.23365E+02   -0.25175E+02  5776   0.246E+02    0.441E+01
DAV:   2    -0.481344043248E+02   -0.27082E+01   -0.32429E+02  6992   0.204E+02    0.450E+01
DAV:   3    -0.316722815465E+02    0.16462E+02   -0.18883E+02  7208   0.137E+02    0.293E+01
DAV:   4    -0.231823979557E+02    0.84899E+01   -0.34440E+01  6600   0.787E+01    0.957E+00
DAV:   5    -0.222976856554E+02    0.88471E+00   -0.28237E+00  6520   0.201E+01    0.264E+00
DAV:   6    -0.221794944030E+02    0.11819E+00   -0.26554E-01  8416   0.833E+00    0.167E+00
DAV:   7    -0.221804446856E+02   -0.95028E-03   -0.21770E-01  6648   0.802E+00    0.138E+00
DAV:   8    -0.221686163220E+02    0.11828E-01   -0.31931E-02  6264   0.367E+00    0.246E-01
DAV:   9    -0.221682569725E+02    0.35935E-03   -0.28872E-03  6424   0.677E-01    0.145E-01
DAV:  10    -0.221680825345E+02    0.17444E-03   -0.56110E-04  8568   0.412E-01    0.313E-02
DAV:  11    -0.221681063124E+02   -0.23778E-04   -0.16455E-04  6208   0.158E-01    0.685E-02
DAV:  12    -0.221680789173E+02    0.27395E-04   -0.62348E-05  7024   0.149E-01    0.971E-03
DAV:  13    -0.221680801620E+02   -0.12447E-05   -0.70568E-06  6192   0.280E-02    0.123E-02
DAV:  14    -0.221680796456E+02    0.51648E-06   -0.23618E-06  6568   0.190E-02    0.125E-02
DAV:  15    -0.221680811840E+02   -0.15384E-05   -0.17951E-06  6984   0.223E-02    0.124E-02
DAV:  16    -0.221680867835E+02   -0.55995E-05   -0.13403E-05  7800   0.547E-02    0.153E-02
DAV:  17    -0.221680588101E+02    0.27973E-04   -0.89696E-05  7560   0.152E-01    0.172E-02
DAV:  18    -0.221680737317E+02   -0.14922E-04   -0.27578E-05  7616   0.592E-02    0.106E-02
DAV:  19    -0.221680732756E+02    0.45605E-06   -0.37295E-05  7336   0.976E-02    0.858E-03
DAV:  20    -0.221680766349E+02   -0.33592E-05   -0.46691E-06  7360   0.208E-02    0.281E-03
DAV:  21    -0.221680776521E+02   -0.10172E-05   -0.37961E-07  6272   0.787E-03    0.256E-03
DAV:  22    -0.221680775722E+02    0.79937E-07   -0.11621E-07  6656   0.440E-03    0.270E-03
DAV:  23    -0.221680774190E+02    0.15312E-06   -0.16493E-07  7800   0.586E-03    0.223E-03
DAV:  24    -0.221680773613E+02    0.57749E-07   -0.17349E-07  7840   0.570E-03    0.142E-03
DAV:  25    -0.221680773951E+02   -0.33775E-07   -0.10960E-07  6512   0.447E-03    0.646E-04
DAV:  26    -0.221680774524E+02   -0.57320E-07   -0.33885E-08  4752   0.215E-03    0.528E-04
DAV:  27    -0.221680774669E+02   -0.14536E-07   -0.67120E-09  3120   0.109E-03    0.749E-04
DAV:  28    -0.221680774541E+02    0.12866E-07   -0.95243E-09  3048   0.160E-03    0.769E-04
DAV:  29    -0.221680774509E+02    0.31105E-08   -0.61472E-09  2936   0.723E-04
   2 F= -.22168077E+02 E0= -.22168319E+02  d E =-.107178E+00  mag=    -0.0002
 trial-energy change:   -0.107178  1 .order   -0.116970   -0.387028    0.153088
 step:   0.6934(harm=  0.7166)  dis= 0.00959  next Energy=   -22.191825 (dE=-0.131E+00)
 bond charge predicted
       N       E                     dE             d eps       ncg     rms          rms(c)
DAV:   1    -0.243944589075E+02   -0.22264E+01   -0.22833E+01  5856   0.697E+01    0.147E+01
DAV:   2    -0.258963495975E+02   -0.15019E+01   -0.31144E+01  6672   0.768E+01    0.164E+01
DAV:   3    -0.225794851189E+02    0.33169E+01   -0.11778E+01  6704   0.586E+01    0.978E+00
DAV:   4    -0.222856422055E+02    0.29384E+00   -0.38765E+00  6656   0.276E+01    0.380E+00
DAV:   5    -0.221974441775E+02    0.88198E-01   -0.36779E-01  6896   0.971E+00    0.992E-01
DAV:   6    -0.221906591510E+02    0.67850E-02   -0.39178E-02  6288   0.206E+00    0.206E-01
DAV:   7    -0.221906044212E+02    0.54730E-04   -0.15043E-03  7360   0.450E-01    0.648E-02
DAV:   8    -0.221905911080E+02    0.13313E-04   -0.16404E-04  6624   0.176E-01    0.231E-02
DAV:   9    -0.221905866041E+02    0.45039E-05   -0.15879E-05  7424   0.691E-02    0.122E-02
DAV:  10    -0.221905855959E+02    0.10082E-05   -0.24494E-06  7000   0.286E-02    0.247E-03
DAV:  11    -0.221905855835E+02    0.12402E-07   -0.40801E-07  7296   0.765E-03    0.202E-03
DAV:  12    -0.221905856115E+02   -0.27985E-07   -0.43994E-08  5104   0.244E-03    0.234E-03
DAV:  13    -0.221905855068E+02    0.10471E-06   -0.60040E-08  6064   0.354E-03    0.215E-03
DAV:  14    -0.221905854927E+02    0.14083E-07   -0.53739E-08  5400   0.316E-03    0.154E-03
DAV:  15    -0.221905854942E+02   -0.14388E-08   -0.54354E-08  5712   0.317E-03
   3 F= -.22190585E+02 E0= -.22190754E+02  d E =-.129686E+00  mag=     0.0001
 curvature:  -0.36 expect dE=-0.256E-01 dE for cont linesearch -0.230E-05
 trial: gam= 0.18205 g(F)=  0.219E-02 g(S)=  0.698E-01 ort = 0.158E-02 (trialstep = 0.939E+00)
 search vector abs. value=  0.854E-01
 bond charge predicted
       N       E                     dE             d eps       ncg     rms          rms(c)
DAV:   1    -0.229198094610E+02   -0.72922E+00   -0.19137E+01  6768   0.739E+01    0.853E+00
DAV:   2    -0.229245196028E+02   -0.47101E-02   -0.65405E+00  6704   0.358E+01    0.753E+00
DAV:   3    -0.227409321167E+02    0.18359E+00   -0.38554E+00  6896   0.373E+01    0.100E+01
DAV:   4    -0.223828870549E+02    0.35805E+00   -0.29856E+00  6944   0.256E+01    0.428E+00
DAV:   5    -0.222473488759E+02    0.13554E+00   -0.33355E-01  7424   0.953E+00    0.588E-01
DAV:   6    -0.222437855125E+02    0.35634E-02   -0.31954E-02  6240   0.209E+00    0.333E-01
DAV:   7    -0.222421803193E+02    0.16052E-02   -0.24575E-03  7392   0.823E-01    0.993E-02
DAV:   8    -0.222422185782E+02   -0.38259E-04   -0.72363E-04  6128   0.274E-01    0.317E-02
DAV:   9    -0.222422079042E+02    0.10674E-04   -0.22341E-05  6544   0.649E-02    0.120E-02
DAV:  10    -0.222422062173E+02    0.16870E-05   -0.41609E-06  7160   0.187E-02    0.272E-03
DAV:  11    -0.222422061607E+02    0.56591E-07   -0.59065E-07  7672   0.118E-02    0.149E-03
DAV:  12    -0.222422061337E+02    0.26983E-07   -0.87745E-08  5968   0.433E-03    0.579E-04
DAV:  13    -0.222422061257E+02    0.79708E-08   -0.71479E-09  3592   0.103E-03
   4 F= -.22242206E+02 E0= -.22242371E+02  d E =-.516206E-01  mag=     0.0000
 trial-energy change:   -0.051621  1 .order   -0.051375   -0.067895   -0.034855
 step:   1.8488(harm=  1.9289)  dis= 0.01811  next Energy=   -22.259327 (dE=-0.687E-01)
 bond charge predicted
       N       E                     dE             d eps       ncg     rms          rms(c)
DAV:   1    -0.229530120019E+02   -0.71081E+00   -0.18903E+01  6896   0.726E+01    0.858E+00
DAV:   2    -0.230369988595E+02   -0.83987E-01   -0.69203E+00  6704   0.375E+01    0.823E+00
DAV:   3    -0.228578027661E+02    0.17920E+00   -0.47611E+00  6944   0.404E+01    0.109E+01
DAV:   4    -0.223781111177E+02    0.47969E+00   -0.33912E+00  6992   0.260E+01    0.390E+00
DAV:   5    -0.222676648230E+02    0.11045E+00   -0.33219E-01  7264   0.934E+00    0.479E-01
DAV:   6    -0.222654861843E+02    0.21786E-02   -0.29916E-02  6384   0.202E+00    0.322E-01
DAV:   7    -0.222641336124E+02    0.13526E-02   -0.20754E-03  7584   0.761E-01    0.943E-02
DAV:   8    -0.222641605469E+02   -0.26934E-04   -0.63258E-04  6344   0.253E-01    0.323E-02
DAV:   9    -0.222641492218E+02    0.11325E-04   -0.49366E-05  7000   0.131E-01    0.115E-02
DAV:  10    -0.222641485190E+02    0.70286E-06   -0.51458E-06  6832   0.385E-02    0.269E-03
DAV:  11    -0.222641484425E+02    0.76474E-07   -0.63993E-07  6584   0.981E-03    0.852E-04
DAV:  12    -0.222641484374E+02    0.50513E-08   -0.39826E-08  5200   0.232E-03
   5 F= -.22264148E+02 E0= -.22264405E+02  d E =-.735629E-01  mag=    -0.0000
 curvature:  -1.13 expect dE=-0.572E-02 dE for cont linesearch -0.334E-02
 ZBRENT: increasing intervall
 opt :   3.6691  next Energy=   -22.254371 (dE=-0.638E-01)
 bond charge predicted
       N       E                     dE             d eps       ncg     rms          rms(c)
DAV:   1    -0.251883906950E+02   -0.29242E+01   -0.80772E+01  6928   0.150E+02    0.176E+01
DAV:   2    -0.251370310578E+02    0.51360E-01   -0.29457E+01  6608   0.753E+01    0.145E+01
DAV:   3    -0.239155180676E+02    0.12215E+01   -0.11834E+01  6816   0.702E+01    0.173E+01
DAV:   4    -0.228793423782E+02    0.10362E+01   -0.10481E+01  6752   0.444E+01    0.943E+00
DAV:   5    -0.222727426709E+02    0.60660E+00   -0.15786E+00  7392   0.201E+01    0.967E-01
DAV:   6    -0.222667044699E+02    0.60382E-02   -0.15859E-01  6160   0.444E+00    0.577E-01
DAV:   7    -0.222626786035E+02    0.40259E-02   -0.10270E-02  7952   0.126E+00    0.221E-01
DAV:   8    -0.222628202008E+02   -0.14160E-03   -0.27402E-03  6352   0.653E-01    0.871E-02
DAV:   9    -0.222627276870E+02    0.92514E-04   -0.22347E-04  6664   0.223E-01    0.258E-02
DAV:  10    -0.222627217583E+02    0.59287E-05   -0.34228E-05  6800   0.614E-02    0.700E-03
DAV:  11    -0.222627213811E+02    0.37719E-06   -0.37237E-06  6304   0.257E-02    0.219E-03
DAV:  12    -0.222627213911E+02   -0.99917E-08   -0.28922E-07  6296   0.581E-03    0.184E-03
DAV:  13    -0.222627213805E+02    0.10608E-07   -0.77125E-08  5840   0.406E-03    0.807E-04
DAV:  14    -0.222627213814E+02   -0.94406E-09   -0.64361E-09  3024   0.894E-04
   6 F= -.22262721E+02 E0= -.22261832E+02  d E =-.721359E-01  mag=    -0.0000
 curvature:   3.31 expect dE= 0.210E+00 dE for cont linesearch  0.230E-02
 trial: gam= 1.30708 g(F)=  0.588E-02 g(S)=  0.574E-01 ort =-0.770E-02 (trialstep = 0.671E+00)
 search vector abs. value=  0.189E+00
 bond charge predicted
       N       E                     dE             d eps       ncg     rms          rms(c)
DAV:   1    -0.239716974600E+02   -0.17090E+01   -0.27858E+01  6080   0.598E+01    0.120E+01
DAV:   2    -0.241929116358E+02   -0.22121E+00   -0.18733E+01  6688   0.549E+01    0.132E+01
DAV:   3    -0.235808713728E+02    0.61204E+00   -0.14321E+01  6912   0.462E+01    0.132E+01
DAV:   4    -0.223668545534E+02    0.12140E+01   -0.30470E+00  6672   0.368E+01    0.282E+00
DAV:   5    -0.222859439835E+02    0.80911E-01   -0.37407E-01  5936   0.650E+00    0.734E-01
DAV:   6    -0.222803197959E+02    0.56242E-02   -0.30784E-02  7280   0.188E+00    0.178E-01
DAV:   7    -0.222800149221E+02    0.30487E-03   -0.23701E-03  6656   0.652E-01    0.110E-01
DAV:   8    -0.222800081162E+02    0.68059E-05   -0.48923E-04  6736   0.339E-01    0.615E-02
DAV:   9    -0.222799965948E+02    0.11521E-04   -0.25697E-04  7032   0.219E-01    0.448E-02
DAV:  10    -0.222799877106E+02    0.88843E-05   -0.27367E-05  7528   0.639E-02    0.162E-02
DAV:  11    -0.222799864581E+02    0.12524E-05   -0.36182E-06  7064   0.247E-02    0.498E-03
DAV:  12    -0.222799863474E+02    0.11069E-06   -0.99992E-07  8088   0.117E-02    0.138E-03
DAV:  13    -0.222799863618E+02   -0.14334E-07   -0.11149E-07  5216   0.406E-03    0.604E-04
DAV:  14    -0.222799863640E+02   -0.22446E-08   -0.25789E-09  2888   0.651E-04
   7 F= -.22279986E+02 E0= -.22279964E+02  d E =-.172650E-01  mag=    -0.0006
 trial-energy change:   -0.017265  1 .order   -0.016365   -0.035702    0.002971
 step:   0.6251(harm=  0.6192)  dis= 0.00056  next Energy=   -22.280087 (dE=-0.174E-01)
 bond charge predicted
       N       E                     dE             d eps       ncg     rms          rms(c)
DAV:   1    -0.222877494839E+02   -0.77631E-02   -0.12453E-01  6112   0.388E+00    0.821E-01
DAV:   2    -0.222900778177E+02   -0.23283E-02   -0.82422E-02  6672   0.378E+00    0.954E-01
DAV:   3    -0.222869886812E+02    0.30891E-02   -0.83522E-02  6944   0.395E+00    0.117E+00
DAV:   4    -0.222806410745E+02    0.63476E-02   -0.43302E-02  6688   0.291E+00    0.251E-01
DAV:   5    -0.222801465236E+02    0.49455E-03   -0.28100E-03  6944   0.609E-01    0.804E-02
DAV:   6    -0.222800884714E+02    0.58052E-04   -0.23658E-04  6768   0.180E-01    0.156E-02
DAV:   7    -0.222800872546E+02    0.12168E-05   -0.12466E-05  6576   0.382E-02    0.871E-03
DAV:   8    -0.222800869601E+02    0.29452E-06   -0.21188E-06  6800   0.191E-02    0.428E-03
DAV:   9    -0.222800870854E+02   -0.12531E-06   -0.43106E-07  6760   0.749E-03    0.511E-03
DAV:  10    -0.222800864483E+02    0.63707E-06   -0.16947E-06  7360   0.148E-02    0.429E-03
DAV:  11    -0.222800865212E+02   -0.72843E-07   -0.44782E-07  7000   0.542E-03    0.266E-03
DAV:  12    -0.222800864403E+02    0.80896E-07   -0.51376E-07  7616   0.667E-03    0.121E-03
DAV:  13    -0.222800865264E+02   -0.86067E-07   -0.78777E-08  5320   0.320E-03    0.669E-04
DAV:  14    -0.222800865303E+02   -0.39672E-08   -0.15772E-08  2952   0.182E-03
   8 F= -.22280087E+02 E0= -.22279982E+02  d E =-.173651E-01  mag=     0.0001
 curvature:  -1.09 expect dE=-0.763E-02 dE for cont linesearch -0.825E-07
 trial: gam=-0.02182 g(F)=  0.695E-02 g(S)=  0.831E-04 ort = 0.120E-03 (trialstep = 0.662E+00)
 search vector abs. value=  0.712E-02
 bond charge predicted
       N       E                     dE             d eps       ncg     rms          rms(c)
DAV:   1    -0.222231194379E+02    0.56967E-01   -0.16130E+00  7968   0.518E+01    0.549E-01
DAV:   2    -0.222914299437E+02   -0.68311E-01   -0.67077E-01  5888   0.718E+00    0.130E+00
DAV:   3    -0.222869309783E+02    0.44990E-02   -0.95824E-02  7648   0.430E+00    0.684E-01
DAV:   4    -0.222842837287E+02    0.26472E-02   -0.13807E-02  7184   0.169E+00    0.149E-01
DAV:   5    -0.222841434370E+02    0.14029E-03   -0.54344E-04  7112   0.285E-01    0.113E-01
DAV:   6    -0.222840356204E+02    0.10782E-03   -0.22530E-04  8512   0.337E-01    0.624E-02
DAV:   7    -0.222840092519E+02    0.26368E-04   -0.10511E-04  6816   0.179E-01    0.738E-03
DAV:   8    -0.222840103643E+02   -0.11124E-05   -0.14117E-05  6232   0.458E-02    0.394E-03
DAV:   9    -0.222840105090E+02   -0.14469E-06   -0.48123E-07  8128   0.109E-02    0.190E-03
DAV:  10    -0.222840105967E+02   -0.87663E-07   -0.10643E-07  6192   0.431E-03    0.134E-03
DAV:  11    -0.222840105746E+02    0.22112E-07   -0.21985E-08  3056   0.245E-03    0.144E-03
DAV:  12    -0.222840106464E+02   -0.71828E-07   -0.19104E-07  6136   0.575E-03    0.167E-03
DAV:  13    -0.222840106862E+02   -0.39776E-07   -0.49978E-08  4376   0.177E-03    0.228E-03
DAV:  14    -0.222840106094E+02    0.76774E-07   -0.10310E-07  5624   0.429E-03    0.212E-03
DAV:  15    -0.222840105366E+02    0.72812E-07   -0.21595E-07  6960   0.471E-03    0.142E-03
DAV:  16    -0.222840105435E+02   -0.69322E-08   -0.15781E-07  6344   0.356E-03    0.620E-04
DAV:  17    -0.222840105735E+02   -0.29951E-07   -0.18822E-08  3440   0.132E-03    0.231E-04
DAV:  18    -0.222840105759E+02   -0.23774E-08   -0.11153E-08  2912   0.147E-03
   9 F= -.22284011E+02 E0= -.22283950E+02  d E =-.392405E-02  mag=     0.0001
 trial-energy change:   -0.003924  1 .order   -0.003921   -0.004650   -0.003193
 step:   2.1108(harm=  2.1108)  dis= 0.02737  next Energy=   -22.287505 (dE=-0.742E-02)
 bond charge predicted
       N       E                     dE             d eps       ncg     rms          rms(c)
DAV:   1    -0.219902724890E+02    0.29374E+00   -0.77079E+00  7952   0.113E+02    0.118E+00
DAV:   2    -0.223266401611E+02   -0.33637E+00   -0.32772E+00  6032   0.161E+01    0.300E+00
DAV:   3    -0.222990530367E+02    0.27587E-01   -0.43081E-01  7952   0.893E+00    0.134E+00
DAV:   4    -0.222888665553E+02    0.10186E-01   -0.54259E-02  6968   0.350E+00    0.326E-01
DAV:   5    -0.222882307298E+02    0.63583E-03   -0.23998E-03  6848   0.604E-01    0.249E-01
DAV:   6    -0.222877115451E+02    0.51918E-03   -0.10276E-03  8016   0.733E-01    0.137E-01
DAV:   7    -0.222875936042E+02    0.11794E-03   -0.52010E-04  6792   0.393E-01    0.143E-02
DAV:   8    -0.222875984808E+02   -0.48766E-05   -0.62216E-05  6320   0.985E-02    0.811E-03
DAV:   9    -0.222875990105E+02   -0.52973E-06   -0.25943E-06  7840   0.298E-02    0.387E-03
DAV:  10    -0.222875991932E+02   -0.18269E-06   -0.58428E-07  6424   0.117E-02    0.105E-03
DAV:  11    -0.222875992095E+02   -0.16307E-07   -0.38203E-08  4288   0.325E-03    0.688E-04
DAV:  12    -0.222875992141E+02   -0.46330E-08   -0.79746E-09  2880   0.108E-03
  10 F= -.22287599E+02 E0= -.22287677E+02  d E =-.751268E-02  mag=     0.0004
 curvature:  -1.07 expect dE=-0.323E-03 dE for cont linesearch -0.355E-05
 trial: gam= 0.02226 g(F)=  0.130E-04 g(S)=  0.289E-03 ort = 0.154E-03 (trialstep = 0.951E+00)
 search vector abs. value=  0.313E-03
 bond charge predicted
       N       E                     dE             d eps       ncg     rms          rms(c)
DAV:   1    -0.223085279658E+02   -0.20929E-01   -0.20913E-01  5840   0.832E+00    0.148E+00
DAV:   2    -0.223344567939E+02   -0.25929E-01   -0.36585E-01  6720   0.792E+00    0.217E+00
DAV:   3    -0.223182962099E+02    0.16161E-01   -0.40979E-01  6992   0.104E+01    0.247E+00
DAV:   4    -0.222880121997E+02    0.30284E-01   -0.15780E-01  6712   0.564E+00    0.229E-01
DAV:   5    -0.222878687099E+02    0.14349E-03   -0.76631E-03  6088   0.838E-01    0.153E-01
DAV:   6    -0.222876644616E+02    0.20425E-03   -0.59882E-04  6744   0.322E-01    0.229E-02
DAV:   7    -0.222876615621E+02    0.28995E-05   -0.35863E-05  6240   0.715E-02    0.112E-02
DAV:   8    -0.222876604082E+02    0.11539E-05   -0.58138E-06  6664   0.337E-02    0.350E-03
DAV:   9    -0.222876602675E+02    0.14073E-06   -0.69738E-07  6560   0.117E-02    0.255E-03
DAV:  10    -0.222876602793E+02   -0.11838E-07   -0.28884E-08  4264   0.161E-03    0.276E-03
DAV:  11    -0.222876601210E+02    0.15834E-06   -0.99248E-08  6056   0.318E-03    0.260E-03
DAV:  12    -0.222876600901E+02    0.30899E-07   -0.67831E-08  4536   0.257E-03    0.214E-03
DAV:  13    -0.222876600203E+02    0.69769E-07   -0.22156E-07  7088   0.466E-03    0.163E-03
DAV:  14    -0.222876600102E+02    0.10074E-07   -0.25585E-07  7136   0.470E-03    0.942E-04
DAV:  15    -0.222876600531E+02   -0.42881E-07   -0.24820E-07  6840   0.464E-03    0.618E-04
DAV:  16    -0.222876600921E+02   -0.38930E-07   -0.27878E-08  4784   0.240E-03    0.776E-04
DAV:  17    -0.222876600892E+02    0.28449E-08   -0.25293E-09  2880   0.515E-04
  11 F= -.22287660E+02 E0= -.22287755E+02  d E =-.608751E-04  mag=    -0.0004
 trial-energy change:   -0.000061  1 .order   -0.000062   -0.000291    0.000168
 step:   0.6014(harm=  0.6034)  dis= 0.00051  next Energy=   -22.287691 (dE=-0.918E-04)
 bond charge predicted
       N       E                     dE             d eps       ncg     rms          rms(c)
DAV:   1    -0.222904904387E+02   -0.28303E-02   -0.28348E-02  5840   0.306E+00    0.539E-01
DAV:   2    -0.222941508698E+02   -0.36604E-02   -0.50024E-02  6720   0.287E+00    0.862E-01
DAV:   3    -0.222924085741E+02    0.17423E-02   -0.59126E-02  7040   0.331E+00    0.966E-01
DAV:   4    -0.222877475457E+02    0.46610E-02   -0.24396E-02  6720   0.240E+00    0.797E-02
DAV:   5    -0.222877096315E+02    0.37914E-04   -0.90793E-04  5840   0.264E-01    0.488E-02
DAV:   6    -0.222876894339E+02    0.20198E-04   -0.54313E-05  6928   0.919E-02    0.674E-03
DAV:   7    -0.222876901889E+02   -0.75504E-06   -0.30747E-06  6248   0.190E-02    0.361E-03
DAV:   8    -0.222876904512E+02   -0.26228E-06   -0.30962E-07  7368   0.724E-03    0.212E-03
DAV:   9    -0.222876904919E+02   -0.40676E-07   -0.37178E-08  4136   0.208E-03    0.231E-03
DAV:  10    -0.222876904015E+02    0.90353E-07   -0.22719E-07  6600   0.571E-03    0.235E-03
DAV:  11    -0.222876903774E+02    0.24069E-07   -0.17910E-07  6824   0.390E-03    0.184E-03
DAV:  12    -0.222876903571E+02    0.20340E-07   -0.39143E-07  7800   0.598E-03    0.110E-03
DAV:  13    -0.222876904348E+02   -0.77716E-07   -0.13345E-07  5952   0.301E-03    0.713E-04
DAV:  14    -0.222876904372E+02   -0.24156E-08   -0.39229E-08  4840   0.284E-03
  12 F= -.22287690E+02 E0= -.22287779E+02  d E =-.912231E-04  mag=     0.0008
 curvature:  -0.31 expect dE=-0.177E-04 dE for cont linesearch -0.502E-08
 trial: gam= 0.20640 g(F)=  0.497E-05 g(S)=  0.523E-04 ort =-0.226E-05 (trialstep = 0.881E+00)
 search vector abs. value=  0.696E-04
 bond charge predicted
       N       E                     dE             d eps       ncg     rms          rms(c)
DAV:   1    -0.222877308990E+02   -0.40464E-04   -0.13175E-02  6784   0.298E+00    0.158E-01
DAV:   2    -0.222878731019E+02   -0.14220E-03   -0.41482E-03  5968   0.736E-01    0.118E-01
DAV:   3    -0.222881091155E+02   -0.23601E-03   -0.25532E-03  7360   0.728E-01    0.262E-01
DAV:   4    -0.222877414462E+02    0.36767E-03   -0.16732E-03  7360   0.565E-01    0.262E-02
DAV:   5    -0.222877371320E+02    0.43143E-05   -0.78412E-05  6416   0.973E-02    0.122E-02
DAV:   6    -0.222877352735E+02    0.18585E-05   -0.71621E-06  6480   0.383E-02    0.361E-03
DAV:   7    -0.222877352085E+02    0.65025E-07   -0.58232E-07  7040   0.102E-02    0.265E-03
DAV:   8    -0.222877352786E+02   -0.70149E-07   -0.18949E-07  7104   0.428E-03    0.278E-03
DAV:   9    -0.222877352732E+02    0.53897E-08   -0.11850E-08  3352   0.151E-03
  13 F= -.22287735E+02 E0= -.22287852E+02  d E =-.448360E-04  mag=     0.0032
 ZBRENT: can't locate minimum, use default step
 trial-energy change:   -0.000045  1 .order   -0.000045   -0.000050   -0.000040
 step:   3.5257(harm=  4.3345)  dis= 0.00184  next Energy=   -22.287813 (dE=-0.123E-03)
 bond charge predicted
       N       E                     dE             d eps       ncg     rms          rms(c)
DAV:   1    -0.222877769933E+02   -0.41715E-04   -0.11877E-01  6784   0.895E+00    0.474E-01
DAV:   2    -0.222890844122E+02   -0.13074E-02   -0.37490E-02  5968   0.221E+00    0.365E-01
DAV:   3    -0.222910800920E+02   -0.19957E-02   -0.23016E-02  7360   0.221E+00    0.774E-01
DAV:   4    -0.222878684984E+02    0.32116E-02   -0.14516E-02  7384   0.164E+00    0.831E-02
DAV:   5    -0.222878226155E+02    0.45883E-04   -0.72892E-04  6488   0.305E-01    0.383E-02
DAV:   6    -0.222878054194E+02    0.17196E-04   -0.68237E-05  6408   0.119E-01    0.114E-02
DAV:   7    -0.222878051097E+02    0.30979E-06   -0.56670E-06  7048   0.306E-02    0.910E-03
DAV:   8    -0.222878061202E+02   -0.10106E-05   -0.22530E-06  7416   0.145E-02    0.978E-03
DAV:   9    -0.222878055672E+02    0.55303E-06   -0.41665E-07  6344   0.914E-03    0.111E-02
DAV:  10    -0.222878085899E+02   -0.30227E-05   -0.86786E-06  7744   0.357E-02    0.110E-02
DAV:  11    -0.222878133665E+02   -0.47766E-05   -0.12617E-05  7968   0.327E-02    0.150E-02
DAV:  12    -0.222878122603E+02    0.11062E-05   -0.13695E-06  6048   0.170E-02    0.187E-02
DAV:  13    -0.222878175105E+02   -0.52502E-05   -0.72116E-06  7640   0.305E-02    0.194E-02
DAV:  14    -0.222878245762E+02   -0.70657E-05   -0.12167E-05  7936   0.331E-02    0.231E-02
DAV:  15    -0.222878428087E+02   -0.18233E-04   -0.53383E-05  7816   0.738E-02    0.285E-02
DAV:  16    -0.222878168781E+02    0.25931E-04   -0.44228E-05  7416   0.875E-02    0.357E-02
DAV:  17    -0.222878240203E+02   -0.71421E-05   -0.17056E-06  6104   0.168E-02    0.298E-02
DAV:  18    -0.222878367876E+02   -0.12767E-04   -0.13474E-05  7864   0.407E-02    0.298E-02
DAV:  19    -0.222878546741E+02   -0.17886E-04   -0.32713E-05  7896   0.558E-02    0.343E-02
DAV:  20    -0.222878549863E+02   -0.31222E-06   -0.29194E-06  5864   0.182E-02    0.402E-02
DAV:  21    -0.222878508499E+02    0.41364E-05   -0.38262E-07  7160   0.769E-03    0.416E-02
DAV:  22    -0.222878474493E+02    0.34006E-05   -0.49614E-07  7928   0.703E-03    0.414E-02
DAV:  23    -0.222878572670E+02   -0.98177E-05   -0.38649E-06  7744   0.231E-02    0.406E-02
DAV:  24    -0.222878559048E+02    0.13622E-05   -0.23362E-07  5952   0.538E-03    0.425E-02
DAV:  25    -0.222878598253E+02   -0.39205E-05   -0.84098E-07  7776   0.985E-03    0.428E-02
DAV:  26    -0.222878579928E+02    0.18325E-05   -0.76076E-08  5336   0.403E-03    0.438E-02
DAV:  27    -0.222878599247E+02   -0.19320E-05   -0.17188E-07  6296   0.477E-03    0.438E-02
DAV:  28    -0.222878550907E+02    0.48340E-05   -0.69698E-07  7592   0.101E-02    0.443E-02
DAV:  29    -0.222878778757E+02   -0.22785E-04   -0.20335E-05  7800   0.515E-02    0.433E-02
DAV:  30    -0.222878873707E+02   -0.94950E-05   -0.79322E-06  7672   0.226E-02    0.477E-02
DAV:  31    -0.222878825671E+02    0.48036E-05   -0.65428E-07  5912   0.113E-02    0.505E-02
DAV:  32    -0.222878957858E+02   -0.13219E-04   -0.60525E-06  7752   0.277E-02    0.504E-02
DAV:  33    -0.222878943701E+02    0.14157E-05   -0.49172E-07  6096   0.669E-03    0.528E-02
DAV:  34    -0.222879010786E+02   -0.67084E-05   -0.17085E-06  7784   0.139E-02    0.531E-02
DAV:  35    -0.222879003527E+02    0.72589E-06   -0.17672E-07  5528   0.366E-03    0.544E-02
DAV:  36    -0.222879001731E+02    0.17956E-06   -0.19111E-08  3264   0.116E-03    0.548E-02
DAV:  37    -0.222879080806E+02   -0.79075E-05   -0.17326E-06  7872   0.144E-02    0.547E-02
DAV:  38    -0.222879093772E+02   -0.12965E-05   -0.38415E-07  7392   0.464E-03    0.559E-02
DAV:  39    -0.222879086910E+02    0.68614E-06   -0.28167E-08  4520   0.167E-03    0.565E-02
DAV:  40    -0.222879232236E+02   -0.14533E-04   -0.55015E-06  7824   0.260E-02    0.561E-02
DAV:  41    -0.222879297722E+02   -0.65486E-05   -0.26054E-06  7744   0.134E-02    0.581E-02
DAV:  42    -0.222879359924E+02   -0.62202E-05   -0.18318E-06  7440   0.123E-02    0.593E-02
DAV:  43    -0.222879430373E+02   -0.70449E-05   -0.20863E-06  7832   0.130E-02    0.604E-02
DAV:  44    -0.222879450174E+02   -0.19801E-05   -0.57314E-07  6896   0.586E-03    0.616E-02
DAV:  45    -0.222879453196E+02   -0.30217E-06   -0.10614E-07  5200   0.232E-03    0.623E-02
DAV:  46    -0.222879568493E+02   -0.11530E-04   -0.30569E-06  7896   0.190E-02    0.621E-02
DAV:  47    -0.222879650251E+02   -0.81759E-05   -0.25327E-06  7872   0.144E-02    0.632E-02
DAV:  48    -0.222879574719E+02    0.75532E-05   -0.59679E-07  6712   0.110E-02    0.649E-02
DAV:  49    -0.222879594352E+02   -0.19633E-05   -0.62695E-08  4888   0.359E-03    0.645E-02
DAV:  50    -0.222879752686E+02   -0.15833E-04   -0.47502E-06  7856   0.242E-02    0.638E-02
DAV:  51    -0.222879709484E+02    0.43201E-05   -0.31877E-07  5952   0.774E-03    0.657E-02
DAV:  52    -0.222879902263E+02   -0.19278E-04   -0.69796E-06  7760   0.299E-02    0.649E-02
DAV:  53    -0.222879845588E+02    0.56675E-05   -0.47369E-07  5992   0.962E-03    0.672E-02
DAV:  54    -0.222879838501E+02    0.70868E-06   -0.18843E-08  4560   0.134E-03    0.673E-02
DAV:  55    -0.222879767729E+02    0.70772E-05   -0.75412E-07  7888   0.980E-03    0.677E-02
DAV:  56    -0.222879764421E+02    0.33074E-06   -0.11030E-07  6128   0.250E-03    0.670E-02
DAV:  57    -0.222879822961E+02   -0.58539E-05   -0.45010E-07  7688   0.808E-03    0.665E-02
DAV:  58    -0.222879504617E+02    0.31834E-04   -0.14486E-05  7816   0.440E-02    0.685E-02
DAV:  59    -0.222879610741E+02   -0.10612E-04   -0.93028E-07  6128   0.139E-02    0.651E-02
DAV:  60    -0.222879740356E+02   -0.12962E-04   -0.27241E-06  7904   0.181E-02
  14 F= -.22287974E+02 E0= -.22288114E+02  d E =-.283598E-03  mag=     0.0875
 curvature:  -2.51 expect dE=-0.239E-04 dE for cont linesearch -0.569E-06
 trial: gam= 0.26379 g(F)=  0.762E-05 g(S)=  0.190E-05 ort =-0.397E-05 (trialstep = 0.141E+01)
 search vector abs. value=  0.123E-04
 bond charge predicted
       N       E                     dE             d eps       ncg     rms          rms(c)
DAV:   1    -0.222881167601E+02   -0.15569E-03   -0.81171E-03  6200   0.272E+00    0.207E-01
DAV:   2    -0.222888552823E+02   -0.73852E-03   -0.78794E-03  6688   0.117E+00    0.336E-01
DAV:   3    -0.222886472483E+02    0.20803E-03   -0.82720E-03  7016   0.134E+00    0.335E-01
DAV:   4    -0.222881044361E+02    0.54281E-03   -0.28179E-03  6856   0.779E-01    0.884E-02
DAV:   5    -0.222881477849E+02   -0.43349E-04   -0.25726E-04  6888   0.173E-01    0.763E-02
DAV:   6    -0.222882264575E+02   -0.78673E-04   -0.18538E-04  7664   0.134E-01    0.721E-02
DAV:   7    -0.222882695846E+02   -0.43127E-04   -0.44154E-05  7360   0.551E-02    0.774E-02
DAV:   8    -0.222878388110E+02    0.43077E-03   -0.13500E-03  7440   0.428E-01    0.107E-01
DAV:   9    -0.222876784946E+02    0.16032E-03   -0.99731E-04  7712   0.293E-01    0.949E-02
DAV:  10    -0.222877428037E+02   -0.64309E-04   -0.29305E-04  7544   0.137E-01    0.664E-02
DAV:  11    -0.222879000525E+02   -0.15725E-03   -0.77583E-04  7360   0.343E-01    0.369E-02
DAV:  12    -0.222880229955E+02   -0.12294E-03   -0.49350E-04  7736   0.203E-01    0.516E-02
DAV:  13    -0.222880212672E+02    0.17282E-05   -0.51757E-05  5952   0.104E-01    0.683E-02
DAV:  14    -0.222880037636E+02    0.17504E-04   -0.57717E-06  7016   0.207E-02    0.689E-02
DAV:  15    -0.222880864662E+02   -0.82703E-04   -0.13319E-04  7760   0.133E-01    0.632E-02
DAV:  16    -0.222881371164E+02   -0.50650E-04   -0.73685E-05  7776   0.768E-02    0.681E-02
DAV:  17    -0.222876838214E+02    0.45330E-03   -0.16052E-03  7752   0.474E-01    0.978E-02
DAV:  18    -0.222877593718E+02   -0.75550E-04   -0.32142E-04  7408   0.136E-01    0.633E-02
DAV:  19    -0.222877335498E+02    0.25822E-04   -0.31124E-04  7672   0.166E-01    0.462E-02
DAV:  20    -0.222876978239E+02    0.35726E-04   -0.95393E-04  7864   0.300E-01    0.430E-02
DAV:  21    -0.222878248989E+02   -0.12707E-03   -0.10221E-04  6064   0.149E-01    0.324E-02
DAV:  22    -0.222877821333E+02    0.42766E-04   -0.19571E-04  7944   0.147E-01    0.259E-02
DAV:  23    -0.222877876574E+02   -0.55241E-05   -0.17960E-04  7744   0.122E-01    0.148E-02
DAV:  24    -0.222878184201E+02   -0.30763E-04   -0.23468E-05  6832   0.411E-02    0.150E-02
DAV:  25    -0.222878040898E+02    0.14330E-04   -0.66825E-05  7648   0.981E-02    0.188E-02
DAV:  26    -0.222878070726E+02   -0.29828E-05   -0.15291E-05  7616   0.297E-02    0.115E-02
DAV:  27    -0.222878077362E+02   -0.66354E-06   -0.13487E-05  7512   0.337E-02    0.936E-03
DAV:  28    -0.222878097681E+02   -0.20319E-05   -0.16360E-05  7392   0.526E-02    0.483E-03
DAV:  29    -0.222878111553E+02   -0.13872E-05   -0.57596E-06  7632   0.199E-02    0.492E-03
DAV:  30    -0.222878129925E+02   -0.18371E-05   -0.60517E-06  7624   0.230E-02    0.739E-03
DAV:  31    -0.222878141928E+02   -0.12004E-05   -0.12295E-06  7168   0.845E-03    0.102E-02
DAV:  32    -0.222878142421E+02   -0.49296E-07   -0.12421E-07  5184   0.285E-03    0.114E-02
DAV:  33    -0.222878139719E+02    0.27021E-06   -0.17732E-08  4280   0.185E-03    0.119E-02
DAV:  34    -0.222878140512E+02   -0.79241E-07   -0.67254E-09  2880   0.113E-03    0.118E-02
DAV:  35    -0.222878142527E+02   -0.20158E-06   -0.27751E-08  3064   0.177E-03    0.119E-02
DAV:  36    -0.222878146074E+02   -0.35467E-06   -0.10367E-07  6328   0.301E-03    0.121E-02
DAV:  37    -0.222878145723E+02    0.35117E-07   -0.11120E-08  3072   0.994E-04    0.125E-02
DAV:  38    -0.222878146382E+02   -0.65873E-07   -0.73842E-09  2880   0.794E-04    0.126E-02
DAV:  39    -0.222878142406E+02    0.39757E-06   -0.57233E-08  4040   0.305E-03    0.127E-02
DAV:  40    -0.222878141325E+02    0.10810E-06   -0.23395E-08  3160   0.127E-03    0.125E-02
DAV:  41    -0.222878135459E+02    0.58656E-06   -0.22695E-07  7104   0.474E-03    0.122E-02
DAV:  42    -0.222878134785E+02    0.67470E-07   -0.62823E-08  4344   0.196E-03    0.116E-02
DAV:  43    -0.222878123023E+02    0.11761E-05   -0.96238E-07  7952   0.102E-02    0.111E-02
DAV:  44    -0.222878112508E+02    0.10515E-05   -0.16639E-06  7920   0.121E-02    0.971E-03
DAV:  45    -0.222878092760E+02    0.19748E-05   -0.61678E-06  7792   0.248E-02    0.798E-03
DAV:  46    -0.222878095117E+02   -0.23572E-06   -0.38874E-06  7664   0.164E-02    0.472E-03
DAV:  47    -0.222878096544E+02   -0.14265E-06   -0.54295E-06  7728   0.217E-02    0.296E-03
DAV:  48    -0.222878106519E+02   -0.99756E-06   -0.59872E-07  5984   0.112E-02    0.188E-03
DAV:  49    -0.222878105498E+02    0.10209E-06   -0.37063E-07  7920   0.634E-03    0.177E-03
DAV:  50    -0.222878104264E+02    0.12347E-06   -0.93812E-07  7864   0.965E-03    0.136E-03
DAV:  51    -0.222878105333E+02   -0.10689E-06   -0.72340E-07  7760   0.739E-03    0.106E-03
DAV:  52    -0.222878106900E+02   -0.15676E-06   -0.22917E-07  5888   0.371E-03    0.169E-03
DAV:  53    -0.222878105739E+02    0.11612E-06   -0.32357E-07  7296   0.723E-03    0.207E-03
DAV:  54    -0.222878105217E+02    0.52216E-07   -0.22592E-07  7144   0.423E-03    0.149E-03
DAV:  55    -0.222878104999E+02    0.21815E-07   -0.29276E-07  7504   0.510E-03    0.963E-04
DAV:  56    -0.222878105491E+02   -0.49209E-07   -0.13437E-07  5920   0.288E-03    0.469E-04
DAV:  57    -0.222878105710E+02   -0.21890E-07   -0.19612E-08  4112   0.209E-03    0.463E-04
DAV:  58    -0.222878105566E+02    0.14385E-07   -0.68752E-08  4728   0.270E-03    0.426E-04
DAV:  59    -0.222878105637E+02   -0.71250E-08   -0.17004E-08  3112   0.969E-04
  15 F= -.22287811E+02 E0= -.22288026E+02  d E =0.163472E-03  mag=     0.0001
 trial-energy change:    0.000163  1 .order   -0.000007   -0.000012   -0.000002
 step:   1.7330(harm=  1.7330)  dis= 0.00050  next Energy=   -22.287981 (dE=-0.734E-05)
 bond charge predicted
       N       E                     dE             d eps       ncg     rms          rms(c)
DAV:   1    -0.222878176375E+02   -0.70810E-05   -0.42575E-04  6208   0.622E-01    0.436E-02
DAV:   2    -0.222878583989E+02   -0.40761E-04   -0.42366E-04  6704   0.272E-01    0.820E-02
DAV:   3    -0.222878417772E+02    0.16622E-04   -0.47620E-04  6992   0.307E-01    0.747E-02
DAV:   4    -0.222878124349E+02    0.29342E-04   -0.15207E-04  6912   0.176E-01    0.104E-02
DAV:   5    -0.222878110538E+02    0.13811E-05   -0.69011E-06  6488   0.288E-02    0.437E-03
DAV:   6    -0.222878108631E+02    0.19071E-06   -0.71951E-07  7168   0.981E-03    0.858E-04
DAV:   7    -0.222878108146E+02    0.48502E-07   -0.56473E-08  5824   0.299E-03    0.499E-04
DAV:   8    -0.222878107925E+02    0.22163E-07   -0.79578E-09  2912   0.110E-03    0.224E-04
DAV:   9    -0.222878107869E+02    0.55552E-08   -0.26378E-09  2880   0.537E-04
  16 F= -.22287811E+02 E0= -.22288029E+02  d E =0.163249E-03  mag=     0.0001
 curvature:  -1.25 expect dE=-0.227E-04 dE for cont linesearch -0.267E-08
 trial: gam= 2.08623 g(F)=  0.617E-06 g(S)=  0.174E-04 ort =-0.162E-06 (trialstep = 0.256E+00)
 search vector abs. value=  0.708E-04
 bond charge predicted
       N       E                     dE             d eps       ncg     rms          rms(c)
DAV:   1    -0.222877962367E+02    0.14556E-04   -0.13457E-03  6744   0.119E+00    0.492E-02
DAV:   2    -0.222878317925E+02   -0.35556E-04   -0.61945E-04  6184   0.273E-01    0.358E-02
DAV:   3    -0.222878229629E+02    0.88295E-05   -0.82811E-05  7008   0.121E-01    0.345E-02
DAV:   4    -0.222878264615E+02   -0.34985E-05   -0.11578E-04  6896   0.156E-01    0.458E-02
DAV:   5    -0.222878144157E+02    0.12046E-04   -0.53662E-05  7600   0.103E-01    0.313E-03
DAV:   6    -0.222878143078E+02    0.10790E-06   -0.20054E-06  6536   0.134E-02    0.107E-03
DAV:   7    -0.222878143281E+02   -0.20376E-07   -0.81606E-08  6816   0.295E-03    0.784E-04
DAV:   8    -0.222878143473E+02   -0.19132E-07   -0.18959E-08  3344   0.148E-03    0.532E-04
DAV:   9    -0.222878143576E+02   -0.10301E-07   -0.76587E-09  2880   0.863E-04    0.543E-04
DAV:  10    -0.222878143453E+02    0.12284E-07   -0.25086E-08  3000   0.192E-03    0.652E-04
DAV:  11    -0.222878143491E+02   -0.38308E-08   -0.46260E-09  2880   0.521E-04
  17 F= -.22287814E+02 E0= -.22288037E+02  d E =-.356221E-05  mag=     0.0004
 trial-energy change:   -0.000004  1 .order   -0.000003   -0.000005   -0.000002
 step:   0.4716(harm=  0.5559)  dis= 0.00034  next Energy=   -22.287815 (dE=-0.464E-05)
 bond charge predicted
       N       E                     dE             d eps       ncg     rms          rms(c)
DAV:   1    -0.222878032626E+02    0.11083E-04   -0.96279E-04  6768   0.100E+00    0.416E-02
DAV:   2    -0.222878283938E+02   -0.25131E-04   -0.44123E-04  6184   0.231E-01    0.303E-02
DAV:   3    -0.222878222193E+02    0.61745E-05   -0.59550E-05  6984   0.102E-01    0.294E-02
DAV:   4    -0.222878245764E+02   -0.23571E-05   -0.82991E-05  6888   0.132E-01    0.385E-02
DAV:   5    -0.222878160508E+02    0.85256E-05   -0.37971E-05  7592   0.868E-02    0.270E-03
DAV:   6    -0.222878159846E+02    0.66133E-07   -0.14345E-06  6536   0.114E-02    0.116E-03
DAV:   7    -0.222878160091E+02   -0.24429E-07   -0.68011E-08  6040   0.265E-03    0.108E-03
DAV:   8    -0.222878160311E+02   -0.22083E-07   -0.21681E-08  3080   0.145E-03    0.109E-03
DAV:   9    -0.222878160151E+02    0.16069E-07   -0.11305E-08  2880   0.158E-03    0.125E-03
DAV:  10    -0.222878160795E+02   -0.64410E-07   -0.24647E-07  7264   0.594E-03    0.120E-03
DAV:  11    -0.222878161969E+02   -0.11738E-06   -0.49144E-07  7952   0.661E-03    0.196E-03
DAV:  12    -0.222878160823E+02    0.11453E-06   -0.26434E-07  7360   0.690E-03    0.261E-03
DAV:  13    -0.222878163272E+02   -0.24488E-06   -0.90303E-07  7664   0.112E-02    0.246E-03
DAV:  14    -0.222878167609E+02   -0.43366E-06   -0.18873E-06  7944   0.132E-02    0.390E-03
DAV:  15    -0.222878167007E+02    0.60170E-07   -0.21699E-07  6104   0.689E-03    0.526E-03
DAV:  16    -0.222878163057E+02    0.39501E-06   -0.40808E-07  7960   0.654E-03    0.510E-03
DAV:  17    -0.222878166611E+02   -0.35545E-06   -0.23772E-07  7360   0.645E-03    0.445E-03
DAV:  18    -0.222878170817E+02   -0.42055E-06   -0.79064E-07  7920   0.899E-03    0.511E-03
DAV:  19    -0.222878175668E+02   -0.48506E-06   -0.77925E-07  7912   0.790E-03    0.634E-03
DAV:  20    -0.222878171953E+02    0.37141E-06   -0.20324E-07  6664   0.639E-03    0.728E-03
DAV:  21    -0.222878173363E+02   -0.14098E-06   -0.25111E-08  3312   0.230E-03    0.703E-03
DAV:  22    -0.222878171187E+02    0.21765E-06   -0.51276E-08  3816   0.287E-03    0.717E-03
DAV:  23    -0.222878171274E+02   -0.86748E-08   -0.75472E-09  2928   0.674E-04
  18 F= -.22287817E+02 E0= -.22288044E+02  d E =-.634044E-05  mag=     0.0064
 curvature:  -1.02 expect dE=-0.534E-05 dE for cont linesearch -0.387E-06
 trial: gam=-0.22263 g(F)=  0.676E-07 g(S)=  0.515E-05 ort = 0.517E-05 (trialstep = 0.299E+00)
 search vector abs. value=  0.642E-05
 reached required accuracy - stopping structural energy minimisation
 writing wavefunctions
