   8   8   0   0
  0.1417364E+02  0.4792824E-09  0.4792824E-09  0.7524171E-09  0.5000000E-15
  1.000000000000000E-004
  CAR 
 unknown system                          
     19.91192558    -58.67029185  301      8.68798176      1.00000000
    -58.670  0.0000E+00  0.0000E+00  0.0000E+00  0.0000E+00
    -58.408  0.0000E+00  0.0000E+00  0.0000E+00  0.0000E+00
    -58.146  0.0000E+00  0.0000E+00  0.0000E+00  0.0000E+00
    -57.884  0.0000E+00  0.0000E+00  0.0000E+00  0.0000E+00
    -57.623  0.0000E+00  0.0000E+00  0.0000E+00  0.0000E+00
    -57.361  0.0000E+00  0.0000E+00  0.0000E+00  0.0000E+00
    -57.099  0.0000E+00  0.0000E+00  0.0000E+00  0.0000E+00
    -56.837  0.0000E+00  0.0000E+00  0.0000E+00  0.0000E+00
    -56.575  0.0000E+00  0.0000E+00  0.0000E+00  0.0000E+00
    -56.313  0.0000E+00  0.0000E+00  0.0000E+00  0.0000E+00
    -56.051  0.0000E+00  0.0000E+00  0.0000E+00  0.0000E+00
    -55.789  0.0000E+00  0.0000E+00  0.0000E+00  0.0000E+00
    -55.527  0.0000E+00  0.0000E+00  0.0000E+00  0.0000E+00
    -55.265  0.0000E+00  0.0000E+00  0.0000E+00  0.0000E+00
    -55.003  0.0000E+00  0.0000E+00  0.5000E+01  0.5000E+01
    -54.741  0.0000E+00  0.0000E+00  0.6000E+01  0.6000E+01
    -54.479  0.0000E+00  0.0000E+00  0.6000E+01  0.6000E+01
    -54.217  0.0000E+00  0.0000E+00  0.6000E+01  0.6000E+01
    -53.955  0.0000E+00  0.0000E+00  0.6000E+01  0.6000E+01
    -53.693  0.0000E+00  0.0000E+00  0.6000E+01  0.6000E+01
    -53.431  0.0000E+00  0.0000E+00  0.6000E+01  0.6000E+01
    -53.170  0.0000E+00  0.0000E+00  0.6000E+01  0.6000E+01
    -52.908  0.0000E+00  0.0000E+00  0.6000E+01  0.6000E+01
    -52.646  0.0000E+00  0.0000E+00  0.6000E+01  0.6000E+01
    -52.384  0.0000E+00  0.0000E+00  0.6000E+01  0.6000E+01
    -52.122  0.0000E+00  0.0000E+00  0.6000E+01  0.6000E+01
    -51.860  0.0000E+00  0.0000E+00  0.6000E+01  0.6000E+01
    -51.598  0.0000E+00  0.0000E+00  0.6000E+01  0.6000E+01
    -51.336  0.0000E+00  0.0000E+00  0.6000E+01  0.6000E+01
    -51.074  0.0000E+00  0.0000E+00  0.6000E+01  0.6000E+01
    -50.812  0.0000E+00  0.0000E+00  0.6000E+01  0.6000E+01
    -50.550  0.0000E+00  0.0000E+00  0.6000E+01  0.6000E+01
    -50.288  0.0000E+00  0.0000E+00  0.6000E+01  0.6000E+01
    -50.026  0.0000E+00  0.0000E+00  0.6000E+01  0.6000E+01
    -49.764  0.0000E+00  0.0000E+00  0.6000E+01  0.6000E+01
    -49.502  0.0000E+00  0.0000E+00  0.6000E+01  0.6000E+01
    -49.240  0.0000E+00  0.0000E+00  0.6000E+01  0.6000E+01
    -48.978  0.0000E+00  0.0000E+00  0.6000E+01  0.6000E+01
    -48.717  0.0000E+00  0.0000E+00  0.6000E+01  0.6000E+01
    -48.455  0.0000E+00  0.0000E+00  0.6000E+01  0.6000E+01
    -48.193  0.0000E+00  0.0000E+00  0.6000E+01  0.6000E+01
    -47.931  0.0000E+00  0.0000E+00  0.6000E+01  0.6000E+01
    -47.669  0.0000E+00  0.0000E+00  0.6000E+01  0.6000E+01
    -47.407  0.0000E+00  0.0000E+00  0.6000E+01  0.6000E+01
    -47.145  0.0000E+00  0.0000E+00  0.6000E+01  0.6000E+01
    -46.883  0.0000E+00  0.0000E+00  0.6000E+01  0.6000E+01
    -46.621  0.0000E+00  0.0000E+00  0.6000E+01  0.6000E+01
    -46.359  0.0000E+00  0.0000E+00  0.6000E+01  0.6000E+01
    -46.097  0.0000E+00  0.0000E+00  0.6000E+01  0.6000E+01
    -45.835  0.0000E+00  0.0000E+00  0.6000E+01  0.6000E+01
    -45.573  0.0000E+00  0.0000E+00  0.6000E+01  0.6000E+01
    -45.311  0.0000E+00  0.0000E+00  0.6000E+01  0.6000E+01
    -45.049  0.0000E+00  0.0000E+00  0.6000E+01  0.6000E+01
    -44.787  0.0000E+00  0.0000E+00  0.6000E+01  0.6000E+01
    -44.525  0.0000E+00  0.0000E+00  0.6000E+01  0.6000E+01
    -44.264  0.0000E+00  0.0000E+00  0.6000E+01  0.6000E+01
    -44.002  0.0000E+00  0.0000E+00  0.6000E+01  0.6000E+01
    -43.740  0.0000E+00  0.0000E+00  0.6000E+01  0.6000E+01
    -43.478  0.0000E+00  0.0000E+00  0.6000E+01  0.6000E+01
    -43.216  0.0000E+00  0.0000E+00  0.6000E+01  0.6000E+01
    -42.954  0.0000E+00  0.0000E+00  0.6000E+01  0.6000E+01
    -42.692  0.0000E+00  0.0000E+00  0.6000E+01  0.6000E+01
    -42.430  0.0000E+00  0.0000E+00  0.6000E+01  0.6000E+01
    -42.168  0.0000E+00  0.0000E+00  0.6000E+01  0.6000E+01
    -41.906  0.0000E+00  0.0000E+00  0.6000E+01  0.6000E+01
    -41.644  0.0000E+00  0.0000E+00  0.6000E+01  0.6000E+01
    -41.382  0.0000E+00  0.0000E+00  0.6000E+01  0.6000E+01
    -41.120  0.0000E+00  0.0000E+00  0.6000E+01  0.6000E+01
    -40.858  0.0000E+00  0.0000E+00  0.6000E+01  0.6000E+01
    -40.596  0.0000E+00  0.0000E+00  0.6000E+01  0.6000E+01
    -40.334  0.0000E+00  0.0000E+00  0.6000E+01  0.6000E+01
    -40.073  0.0000E+00  0.0000E+00  0.6000E+01  0.6000E+01
    -39.811  0.0000E+00  0.0000E+00  0.6000E+01  0.6000E+01
    -39.549  0.0000E+00  0.0000E+00  0.6000E+01  0.6000E+01
    -39.287  0.0000E+00  0.0000E+00  0.6000E+01  0.6000E+01
    -39.025  0.0000E+00  0.0000E+00  0.6000E+01  0.6000E+01
    -38.763  0.0000E+00  0.0000E+00  0.6000E+01  0.6000E+01
    -38.501  0.0000E+00  0.0000E+00  0.6000E+01  0.6000E+01
    -38.239  0.0000E+00  0.0000E+00  0.6000E+01  0.6000E+01
    -37.977  0.0000E+00  0.0000E+00  0.6000E+01  0.6000E+01
    -37.715  0.0000E+00  0.0000E+00  0.6000E+01  0.6000E+01
    -37.453  0.0000E+00  0.0000E+00  0.6000E+01  0.6000E+01
    -37.191  0.0000E+00  0.0000E+00  0.6000E+01  0.6000E+01
    -36.929  0.0000E+00  0.0000E+00  0.6000E+01  0.6000E+01
    -36.667  0.0000E+00  0.0000E+00  0.6000E+01  0.6000E+01
    -36.405  0.0000E+00  0.0000E+00  0.6000E+01  0.6000E+01
    -36.143  0.0000E+00  0.0000E+00  0.6000E+01  0.6000E+01
    -35.881  0.0000E+00  0.0000E+00  0.6000E+01  0.6000E+01
    -35.620  0.0000E+00  0.0000E+00  0.6000E+01  0.6000E+01
    -35.358  0.0000E+00  0.0000E+00  0.6000E+01  0.6000E+01
    -35.096  0.0000E+00  0.0000E+00  0.6000E+01  0.6000E+01
    -34.834  0.0000E+00  0.0000E+00  0.6000E+01  0.6000E+01
    -34.572  0.0000E+00  0.0000E+00  0.6000E+01  0.6000E+01
    -34.310  0.0000E+00  0.0000E+00  0.6000E+01  0.6000E+01
    -34.048  0.0000E+00  0.0000E+00  0.6000E+01  0.6000E+01
    -33.786  0.0000E+00  0.0000E+00  0.6000E+01  0.6000E+01
    -33.524  0.0000E+00  0.0000E+00  0.6000E+01  0.6000E+01
    -33.262  0.0000E+00  0.0000E+00  0.6000E+01  0.6000E+01
    -33.000  0.0000E+00  0.0000E+00  0.6000E+01  0.6000E+01
    -32.738  0.0000E+00  0.0000E+00  0.6000E+01  0.6000E+01
    -32.476  0.0000E+00  0.0000E+00  0.6000E+01  0.6000E+01
    -32.214  0.0000E+00  0.0000E+00  0.6000E+01  0.6000E+01
    -31.952  0.0000E+00  0.0000E+00  0.6000E+01  0.6000E+01
    -31.690  0.0000E+00  0.0000E+00  0.6000E+01  0.6000E+01
    -31.428  0.0000E+00  0.0000E+00  0.6000E+01  0.6000E+01
    -31.167  0.0000E+00  0.0000E+00  0.6000E+01  0.6000E+01
    -30.905  0.0000E+00  0.0000E+00  0.6000E+01  0.6000E+01
    -30.643  0.0000E+00  0.0000E+00  0.6000E+01  0.6000E+01
    -30.381  0.0000E+00  0.0000E+00  0.6000E+01  0.6000E+01
    -30.119  0.0000E+00  0.0000E+00  0.6000E+01  0.6000E+01
    -29.857  0.0000E+00  0.0000E+00  0.6000E+01  0.6000E+01
    -29.595  0.0000E+00  0.0000E+00  0.6000E+01  0.6000E+01
    -29.333  0.0000E+00  0.0000E+00  0.6000E+01  0.6000E+01
    -29.071  0.0000E+00  0.0000E+00  0.6000E+01  0.6000E+01
    -28.809  0.0000E+00  0.0000E+00  0.6000E+01  0.6000E+01
    -28.547  0.0000E+00  0.0000E+00  0.6000E+01  0.6000E+01
    -28.285  0.0000E+00  0.0000E+00  0.6000E+01  0.6000E+01
    -28.023  0.0000E+00  0.0000E+00  0.6000E+01  0.6000E+01
    -27.761  0.0000E+00  0.0000E+00  0.6000E+01  0.6000E+01
    -27.499  0.0000E+00  0.0000E+00  0.6000E+01  0.6000E+01
    -27.237  0.0000E+00  0.0000E+00  0.6000E+01  0.6000E+01
    -26.975  0.0000E+00  0.0000E+00  0.6000E+01  0.6000E+01
    -26.714  0.0000E+00  0.0000E+00  0.6000E+01  0.6000E+01
    -26.452  0.0000E+00  0.0000E+00  0.6000E+01  0.6000E+01
    -26.190  0.0000E+00  0.0000E+00  0.6000E+01  0.6000E+01
    -25.928  0.0000E+00  0.0000E+00  0.6000E+01  0.6000E+01
    -25.666  0.0000E+00  0.0000E+00  0.6000E+01  0.6000E+01
    -25.404  0.0000E+00  0.0000E+00  0.6000E+01  0.6000E+01
    -25.142  0.0000E+00  0.0000E+00  0.6000E+01  0.6000E+01
    -24.880  0.0000E+00  0.0000E+00  0.6000E+01  0.6000E+01
    -24.618  0.0000E+00  0.0000E+00  0.6000E+01  0.6000E+01
    -24.356  0.0000E+00  0.0000E+00  0.6000E+01  0.6000E+01
    -24.094  0.0000E+00  0.0000E+00  0.6000E+01  0.6000E+01
    -23.832  0.0000E+00  0.0000E+00  0.6000E+01  0.6000E+01
    -23.570  0.0000E+00  0.0000E+00  0.6000E+01  0.6000E+01
    -23.308  0.0000E+00  0.0000E+00  0.6000E+01  0.6000E+01
    -23.046  0.0000E+00  0.0000E+00  0.6000E+01  0.6000E+01
    -22.784  0.0000E+00  0.0000E+00  0.6000E+01  0.6000E+01
    -22.522  0.0000E+00  0.0000E+00  0.6000E+01  0.6000E+01
    -22.261  0.0000E+00  0.0000E+00  0.6000E+01  0.6000E+01
    -21.999  0.0000E+00  0.0000E+00  0.6000E+01  0.6000E+01
    -21.737  0.0000E+00  0.0000E+00  0.6000E+01  0.6000E+01
    -21.475  0.0000E+00  0.0000E+00  0.6000E+01  0.6000E+01
    -21.213  0.0000E+00  0.0000E+00  0.6000E+01  0.6000E+01
    -20.951  0.0000E+00  0.0000E+00  0.6000E+01  0.6000E+01
    -20.689  0.0000E+00  0.0000E+00  0.6000E+01  0.6000E+01
    -20.427  0.0000E+00  0.0000E+00  0.6000E+01  0.6000E+01
    -20.165  0.0000E+00  0.0000E+00  0.6000E+01  0.6000E+01
    -19.903  0.0000E+00  0.0000E+00  0.6000E+01  0.6000E+01
    -19.641  0.0000E+00  0.0000E+00  0.6000E+01  0.6000E+01
    -19.379  0.0000E+00  0.0000E+00  0.6000E+01  0.6000E+01
    -19.117  0.0000E+00  0.0000E+00  0.6000E+01  0.6000E+01
    -18.855  0.0000E+00  0.0000E+00  0.6000E+01  0.6000E+01
    -18.593  0.0000E+00  0.0000E+00  0.6000E+01  0.6000E+01
    -18.331  0.0000E+00  0.0000E+00  0.6000E+01  0.6000E+01
    -18.069  0.0000E+00  0.0000E+00  0.6000E+01  0.6000E+01
    -17.808  0.0000E+00  0.0000E+00  0.6000E+01  0.6000E+01
    -17.546  0.0000E+00  0.0000E+00  0.6000E+01  0.6000E+01
    -17.284  0.0000E+00  0.0000E+00  0.6000E+01  0.6000E+01
    -17.022  0.0000E+00  0.0000E+00  0.6000E+01  0.6000E+01
    -16.760  0.0000E+00  0.0000E+00  0.6000E+01  0.6000E+01
    -16.498  0.0000E+00  0.0000E+00  0.6000E+01  0.6000E+01
    -16.236  0.0000E+00  0.0000E+00  0.6000E+01  0.6000E+01
    -15.974  0.0000E+00  0.0000E+00  0.6000E+01  0.6000E+01
    -15.712  0.0000E+00  0.0000E+00  0.6000E+01  0.6000E+01
    -15.450  0.0000E+00  0.0000E+00  0.6000E+01  0.6000E+01
    -15.188  0.0000E+00  0.0000E+00  0.6000E+01  0.6000E+01
    -14.926  0.0000E+00  0.0000E+00  0.6000E+01  0.6000E+01
    -14.664  0.0000E+00  0.0000E+00  0.6000E+01  0.6000E+01
    -14.402  0.0000E+00  0.0000E+00  0.6000E+01  0.6000E+01
    -14.140  0.0000E+00  0.0000E+00  0.6000E+01  0.6000E+01
    -13.878  0.0000E+00  0.0000E+00  0.6000E+01  0.6000E+01
    -13.616  0.0000E+00  0.0000E+00  0.6000E+01  0.6000E+01
    -13.355  0.0000E+00  0.0000E+00  0.6000E+01  0.6000E+01
    -13.093  0.0000E+00  0.0000E+00  0.6000E+01  0.6000E+01
    -12.831  0.0000E+00  0.0000E+00  0.6000E+01  0.6000E+01
    -12.569  0.0000E+00  0.0000E+00  0.6000E+01  0.6000E+01
    -12.307  0.0000E+00  0.0000E+00  0.6000E+01  0.6000E+01
    -12.045  0.0000E+00  0.0000E+00  0.6000E+01  0.6000E+01
    -11.783  0.0000E+00  0.0000E+00  0.6000E+01  0.6000E+01
    -11.521  0.0000E+00  0.0000E+00  0.6000E+01  0.6000E+01
    -11.259  0.0000E+00  0.0000E+00  0.6000E+01  0.6000E+01
    -10.997  0.0000E+00  0.0000E+00  0.6000E+01  0.6000E+01
    -10.735  0.0000E+00  0.0000E+00  0.6000E+01  0.6000E+01
    -10.473  0.0000E+00  0.0000E+00  0.6000E+01  0.6000E+01
    -10.211  0.0000E+00  0.0000E+00  0.6000E+01  0.6000E+01
     -9.949  0.0000E+00  0.0000E+00  0.6000E+01  0.6000E+01
     -9.687  0.0000E+00  0.0000E+00  0.6000E+01  0.6000E+01
     -9.425  0.0000E+00  0.0000E+00  0.6000E+01  0.6000E+01
     -9.163  0.0000E+00  0.0000E+00  0.6000E+01  0.6000E+01
     -8.902  0.0000E+00  0.0000E+00  0.6000E+01  0.6000E+01
     -8.640  0.0000E+00  0.0000E+00  0.6000E+01  0.6000E+01
     -8.378  0.0000E+00  0.0000E+00  0.6000E+01  0.6000E+01
     -8.116  0.0000E+00  0.0000E+00  0.6000E+01  0.6000E+01
     -7.854  0.0000E+00  0.0000E+00  0.6000E+01  0.6000E+01
     -7.592  0.0000E+00  0.0000E+00  0.6000E+01  0.6000E+01
     -7.330  0.0000E+00  0.0000E+00  0.6000E+01  0.6000E+01
     -7.068  0.0000E+00  0.0000E+00  0.6000E+01  0.6000E+01
     -6.806  0.0000E+00  0.0000E+00  0.6000E+01  0.6000E+01
     -6.544  0.0000E+00  0.0000E+00  0.6000E+01  0.6000E+01
     -6.282  0.0000E+00  0.0000E+00  0.6000E+01  0.6000E+01
     -6.020  0.0000E+00  0.0000E+00  0.6000E+01  0.6000E+01
     -5.758  0.0000E+00  0.0000E+00  0.6000E+01  0.6000E+01
     -5.496  0.0000E+00  0.0000E+00  0.6000E+01  0.6000E+01
     -5.234  0.0000E+00  0.0000E+00  0.6000E+01  0.6000E+01
     -4.972  0.0000E+00  0.0000E+00  0.6000E+01  0.6000E+01
     -4.711  0.0000E+00  0.0000E+00  0.6000E+01  0.6000E+01
     -4.449  0.0000E+00  0.0000E+00  0.6000E+01  0.6000E+01
     -4.187  0.0000E+00  0.0000E+00  0.6000E+01  0.6000E+01
     -3.925  0.0000E+00  0.0000E+00  0.6000E+01  0.6000E+01
     -3.663  0.0000E+00  0.0000E+00  0.6000E+01  0.6000E+01
     -3.401  0.0000E+00  0.0000E+00  0.6000E+01  0.6000E+01
     -3.139  0.0000E+00  0.0000E+00  0.6000E+01  0.6000E+01
     -2.877  0.0000E+00  0.0000E+00  0.6000E+01  0.6000E+01
     -2.615  0.0000E+00  0.0000E+00  0.6000E+01  0.6000E+01
     -2.353  0.1766E+00  0.1766E+00  0.6016E+01  0.6016E+01
     -2.091  0.2623E+00  0.2623E+00  0.6074E+01  0.6074E+01
     -1.829  0.3809E+00  0.3809E+00  0.6162E+01  0.6162E+01
     -1.567  0.3586E+00  0.3586E+00  0.6256E+01  0.6256E+01
     -1.305  0.4076E+00  0.4076E+00  0.6356E+01  0.6356E+01
     -1.043  0.5041E+00  0.5041E+00  0.6474E+01  0.6474E+01
     -0.781  0.5861E+00  0.5861E+00  0.6625E+01  0.6625E+01
     -0.519  0.5946E+00  0.5946E+00  0.6778E+01  0.6778E+01
     -0.258  0.6360E+00  0.6360E+00  0.6932E+01  0.6932E+01
      0.004  0.8816E+00  0.8816E+00  0.7127E+01  0.7127E+01
      0.266  0.8492E+00  0.8492E+00  0.7357E+01  0.7357E+01
      0.528  0.6717E+00  0.6717E+00  0.7553E+01  0.7553E+01
      0.790  0.7184E+00  0.7184E+00  0.7737E+01  0.7737E+01
      1.052  0.7505E+00  0.7505E+00  0.7930E+01  0.7930E+01
      1.314  0.6063E+00  0.6063E+00  0.8109E+01  0.8109E+01
      1.576  0.7407E+00  0.7407E+00  0.8284E+01  0.8284E+01
      1.838  0.9821E+00  0.9821E+00  0.8524E+01  0.8524E+01
      2.100  0.1119E+01  0.1119E+01  0.8788E+01  0.8788E+01
      2.362  0.1338E+01  0.1338E+01  0.9112E+01  0.9112E+01
      2.624  0.9542E+00  0.9542E+00  0.9390E+01  0.9390E+01
      2.886  0.1080E+01  0.1080E+01  0.9671E+01  0.9671E+01
      3.148  0.1077E+01  0.1077E+01  0.9949E+01  0.9949E+01
      3.410  0.1187E+01  0.1187E+01  0.1025E+02  0.1025E+02
      3.672  0.1384E+01  0.1384E+01  0.1058E+02  0.1058E+02
      3.934  0.1576E+01  0.1576E+01  0.1097E+02  0.1097E+02
      4.195  0.1469E+01  0.1469E+01  0.1139E+02  0.1139E+02
      4.457  0.1643E+01  0.1643E+01  0.1179E+02  0.1179E+02
      4.719  0.1488E+01  0.1488E+01  0.1220E+02  0.1220E+02
      4.981  0.2147E+01  0.2147E+01  0.1264E+02  0.1264E+02
      5.243  0.2614E+01  0.2614E+01  0.1336E+02  0.1336E+02
      5.505  0.3706E+01  0.3706E+01  0.1415E+02  0.1415E+02
      5.767  0.6026E+01  0.6026E+01  0.1515E+02  0.1515E+02
      6.029  0.3139E+01  0.3139E+01  0.1661E+02  0.1661E+02
      6.291  0.4403E+01  0.4403E+01  0.1778E+02  0.1778E+02
      6.553  0.3422E+01  0.3422E+01  0.1880E+02  0.1880E+02
      6.815  0.3440E+01  0.3440E+01  0.2039E+02  0.2039E+02
      7.077  0.3877E+01  0.3877E+01  0.2145E+02  0.2145E+02
      7.339  0.3037E+01  0.3037E+01  0.2249E+02  0.2249E+02
      7.601  0.1747E+01  0.1747E+01  0.2326E+02  0.2326E+02
      7.863  0.1678E+01  0.1678E+01  0.2367E+02  0.2367E+02
      8.125  0.1641E+01  0.1641E+01  0.2414E+02  0.2414E+02
      8.387  0.1330E+01  0.1330E+01  0.2455E+02  0.2455E+02
      8.648  0.1588E+01  0.1588E+01  0.2494E+02  0.2494E+02
      8.910  0.1534E+01  0.1534E+01  0.2535E+02  0.2535E+02
      9.172  0.1493E+01  0.1493E+01  0.2573E+02  0.2573E+02
      9.434  0.1725E+01  0.1725E+01  0.2616E+02  0.2616E+02
      9.696  0.1590E+01  0.1590E+01  0.2659E+02  0.2659E+02
      9.958  0.1657E+01  0.1657E+01  0.2703E+02  0.2703E+02
     10.220  0.1742E+01  0.1742E+01  0.2747E+02  0.2747E+02
     10.482  0.1426E+01  0.1426E+01  0.2788E+02  0.2788E+02
     10.744  0.1398E+01  0.1398E+01  0.2825E+02  0.2825E+02
     11.006  0.1533E+01  0.1533E+01  0.2861E+02  0.2861E+02
     11.268  0.1552E+01  0.1552E+01  0.2902E+02  0.2902E+02
     11.530  0.1649E+01  0.1649E+01  0.2947E+02  0.2947E+02
     11.792  0.1853E+01  0.1853E+01  0.2991E+02  0.2991E+02
     12.054  0.1743E+01  0.1743E+01  0.3040E+02  0.3040E+02
     12.316  0.1516E+01  0.1516E+01  0.3083E+02  0.3083E+02
     12.578  0.1727E+01  0.1727E+01  0.3125E+02  0.3125E+02
     12.840  0.1693E+01  0.1693E+01  0.3174E+02  0.3174E+02
     13.101  0.1311E+01  0.1311E+01  0.3211E+02  0.3211E+02
     13.363  0.1741E+01  0.1741E+01  0.3249E+02  0.3249E+02
     13.625  0.2063E+01  0.2063E+01  0.3301E+02  0.3301E+02
     13.887  0.1833E+01  0.1833E+01  0.3347E+02  0.3347E+02
     14.149  0.1816E+01  0.1816E+01  0.3397E+02  0.3397E+02
     14.411  0.1621E+01  0.1621E+01  0.3441E+02  0.3441E+02
     14.673  0.1542E+01  0.1542E+01  0.3483E+02  0.3483E+02
     14.935  0.1387E+01  0.1387E+01  0.3522E+02  0.3522E+02
     15.197  0.1306E+01  0.1306E+01  0.3558E+02  0.3558E+02
     15.459  0.6319E+00  0.6319E+00  0.3582E+02  0.3582E+02
     15.721  0.3646E+00  0.3646E+00  0.3595E+02  0.3595E+02
     15.983  0.3533E-01  0.3533E-01  0.3600E+02  0.3600E+02
     16.245  0.1303E-02  0.1303E-02  0.3600E+02  0.3600E+02
     16.507  0.0000E+00  0.0000E+00  0.3600E+02  0.3600E+02
     16.769  0.0000E+00  0.0000E+00  0.3600E+02  0.3600E+02
     17.031  0.0000E+00  0.0000E+00  0.3600E+02  0.3600E+02
     17.293  0.0000E+00  0.0000E+00  0.3600E+02  0.3600E+02
     17.554  0.0000E+00  0.0000E+00  0.3600E+02  0.3600E+02
     17.816  0.0000E+00  0.0000E+00  0.3600E+02  0.3600E+02
     18.078  0.0000E+00  0.0000E+00  0.3600E+02  0.3600E+02
     18.340  0.0000E+00  0.0000E+00  0.3600E+02  0.3600E+02
     18.602  0.0000E+00  0.0000E+00  0.3600E+02  0.3600E+02
     18.864  0.0000E+00  0.0000E+00  0.3600E+02  0.3600E+02
     19.126  0.0000E+00  0.0000E+00  0.3600E+02  0.3600E+02
     19.388  0.0000E+00  0.0000E+00  0.3600E+02  0.3600E+02
     19.650  0.0000E+00  0.0000E+00  0.3600E+02  0.3600E+02
     19.912  0.0000E+00  0.0000E+00  0.3600E+02  0.3600E+02
