 running on   24 total cores
 distrk:  each k-point on   24 cores,    1 groups
 distr:  one band on    6 cores,    4 groups
 using from now: INCAR     
 vasp.5.4.4.18Apr17-6-g9f103f2a35 (build Jan 03 2018 06:08:52) complex          
  
 POSCAR found :  2 types and       8 ions
 scaLAPACK will be used
 WARNING: for PREC=h ENMAX is automatically increase by 25 %
        this was not the case for versions prior to vasp.4.4
 WARNING: for PREC=h ENMAX is automatically increase by 25 %
        this was not the case for versions prior to vasp.4.4
 LDA part: xc-table for Pade appr. of Perdew
 POSCAR, INCAR and KPOINTS ok, starting setup
 FFT: planning ...
 WAVECAR not read
 entering main loop
       N       E                     dE             d eps       ncg     rms          rms(c)
DAV:   1     0.382774673589E+03    0.38277E+03   -0.26400E+04  8176   0.130E+03
DAV:   2    -0.157343143696E+02   -0.39851E+03   -0.37792E+03  6940   0.382E+02
DAV:   3    -0.366145760972E+02   -0.20880E+02   -0.19645E+02  8380   0.963E+01
DAV:   4    -0.372012772737E+02   -0.58670E+00   -0.58294E+00  7940   0.160E+01
DAV:   5    -0.372176727933E+02   -0.16396E-01   -0.16390E-01  8128   0.301E+00    0.322E+01
DAV:   6    -0.738992180049E+02   -0.36682E+02   -0.25728E+02  8272   0.225E+02    0.459E+01
DAV:   7    -0.356157236771E+02    0.38283E+02   -0.93447E+01  8412   0.115E+02    0.172E+01
DAV:   8    -0.318497259644E+02    0.37660E+01   -0.12187E+01  9328   0.505E+01    0.270E+00
DAV:   9    -0.319353966867E+02   -0.85671E-01   -0.98859E-01  7968   0.658E+00    0.109E+00
DAV:  10    -0.319470126144E+02   -0.11616E-01   -0.87645E-02  8232   0.335E+00    0.920E-01
DAV:  11    -0.319389219605E+02    0.80907E-02   -0.31291E-02  8692   0.256E+00    0.355E-01
DAV:  12    -0.319388534962E+02    0.68464E-04   -0.31666E-03  7712   0.357E-01    0.319E-01
DAV:  13    -0.319379356684E+02    0.91783E-03   -0.17211E-03  9644   0.581E-01    0.534E-02
DAV:  14    -0.319379558827E+02   -0.20214E-04   -0.22110E-04  7736   0.928E-02    0.138E-02
DAV:  15    -0.319379514520E+02    0.44307E-05   -0.15677E-05  8712   0.309E-02    0.101E-02
DAV:  16    -0.319379520953E+02   -0.64332E-06   -0.33820E-06  7952   0.187E-02    0.214E-03
DAV:  17    -0.319379517355E+02    0.35983E-06   -0.36922E-07  7980   0.480E-03    0.227E-03
DAV:  18    -0.319379515307E+02    0.20472E-06   -0.76998E-08  8232   0.241E-03    0.557E-04
DAV:  19    -0.319379514739E+02    0.56838E-07   -0.18759E-08  5968   0.110E-03    0.140E-04
DAV:  20    -0.319379514473E+02    0.26574E-07   -0.38751E-09  4140   0.426E-04    0.952E-05
DAV:  21    -0.319379514509E+02   -0.35598E-08   -0.92341E-10  3960   0.332E-04
   1 F= -.31937951E+02 E0= -.31937989E+02  d E =-.319380E+02  mag=     0.0000
 curvature:   0.00 expect dE= 0.000E+00 dE for cont linesearch  0.000E+00
 trial: gam= 0.00000 g(F)=  0.103E+01 g(S)=  0.147E+02 ort = 0.000E+00 (trialstep = 0.100E+01)
 search vector abs. value=  0.158E+02
 bond charge predicted
       N       E                     dE             d eps       ncg     rms          rms(c)
DAV:   1    -0.252359665177E+03   -0.22042E+03   -0.39101E+03  6792   0.837E+02    0.104E+02
DAV:   2    -0.536926475886E+02    0.19867E+03   -0.10361E+03  7352   0.234E+02    0.317E+01
DAV:   3    -0.747772249751E+02   -0.21085E+02   -0.18078E+02  7616   0.159E+02    0.469E+01
DAV:   4    -0.360759220764E+02    0.38701E+02   -0.10793E+02  8508   0.942E+01    0.839E+00
DAV:   5    -0.343763168437E+02    0.16996E+01   -0.42169E+00  7516   0.129E+01    0.744E+00
DAV:   6    -0.355060070352E+02   -0.11297E+01   -0.74153E+00 10336   0.260E+01    0.173E+01
DAV:   7    -0.337602321834E+02    0.17458E+01   -0.23401E+00  8748   0.156E+01    0.306E+00
DAV:   8    -0.337305251188E+02    0.29707E-01   -0.20485E-01  7592   0.295E+00    0.161E+00
DAV:   9    -0.337099566095E+02    0.20569E-01   -0.48948E-02  9480   0.193E+00    0.108E-01
DAV:  10    -0.337109508796E+02   -0.99427E-03   -0.47021E-03  7504   0.384E-01    0.245E-01
DAV:  11    -0.337103461829E+02    0.60470E-03   -0.86573E-04  9384   0.262E-01    0.267E-02
DAV:  12    -0.337103504871E+02   -0.43041E-05   -0.11237E-04  7568   0.592E-02    0.125E-02
DAV:  13    -0.337103500771E+02    0.40997E-06   -0.27408E-06  8112   0.137E-02    0.677E-03
DAV:  14    -0.337103497150E+02    0.36205E-06   -0.38075E-07  9536   0.564E-03    0.248E-03
DAV:  15    -0.337103496334E+02    0.81596E-07   -0.13303E-07  9380   0.324E-03    0.195E-04
DAV:  16    -0.337103496073E+02    0.26187E-07   -0.47000E-09  4160   0.559E-04    0.179E-04
DAV:  17    -0.337103495751E+02    0.32135E-07   -0.17040E-09  4088   0.480E-04    0.118E-04
DAV:  18    -0.337103495727E+02    0.23756E-08   -0.38096E-10  3988   0.230E-04
   2 F= -.33710350E+02 E0= -.33709860E+02  d E =-.177240E+01  mag=    -0.0000
 trial-energy change:   -1.772398  1 .order   -2.814378  -15.758637   10.129882
 step:   0.5489(harm=  0.6087)  dis= 0.05814  next Energy=   -36.090700 (dE=-0.415E+01)
 bond charge predicted
       N       E                     dE             d eps       ncg     rms          rms(c)
DAV:   1    -0.167364919137E+03   -0.13365E+03   -0.88492E+02  8432   0.321E+02    0.115E+02
DAV:   2    -0.335462876978E+03   -0.16810E+03   -0.33256E+03 11728   0.432E+02    0.115E+02
DAV:   3    -0.750536335579E+02    0.26041E+03   -0.14782E+03  9084   0.228E+02    0.379E+01
DAV:   4    -0.609563667343E+02    0.14097E+02   -0.10946E+02  8032   0.688E+01    0.276E+01
DAV:   5    -0.437310142774E+02    0.17225E+02   -0.15315E+01  8384   0.396E+01    0.181E+01
DAV:   6    -0.361168626889E+02    0.76142E+01   -0.21253E+01  9300   0.582E+01    0.665E+00
DAV:   7    -0.387261914994E+02   -0.26093E+01   -0.70252E+00  9728   0.190E+01    0.211E+01
DAV:   8    -0.360420085329E+02    0.26842E+01   -0.92302E+00  9208   0.353E+01    0.557E+00
DAV:   9    -0.357898041465E+02    0.25220E+00   -0.14755E+00  8496   0.162E+01    0.194E+00
DAV:  10    -0.358368703442E+02   -0.47066E-01   -0.41483E-01  9016   0.811E+00    0.307E+00
DAV:  11    -0.358399051353E+02   -0.30348E-02   -0.32825E-02  7836   0.120E+00    0.313E+00
DAV:  12    -0.357569981370E+02    0.82907E-01   -0.10208E-01  8836   0.393E+00    0.101E+00
DAV:  13    -0.357540757198E+02    0.29224E-02   -0.85216E-03  7508   0.517E-01    0.763E-01
DAV:  14    -0.357518038895E+02    0.22718E-02   -0.51520E-04  9644   0.230E-01    0.620E-01
DAV:  15    -0.357479160031E+02    0.38879E-02   -0.43698E-03  9540   0.741E-01    0.159E-01
DAV:  16    -0.357479686454E+02   -0.52642E-04   -0.41003E-04  7436   0.127E-01    0.163E-01
DAV:  17    -0.357477492943E+02    0.21935E-03   -0.18152E-04 10092   0.158E-01    0.635E-02
DAV:  18    -0.357477131480E+02    0.36146E-04   -0.63269E-05 11012   0.694E-02    0.165E-02
DAV:  19    -0.357477138896E+02   -0.74159E-06   -0.46155E-06  7608   0.129E-02    0.171E-02
DAV:  20    -0.357477107467E+02    0.31429E-05   -0.35138E-06  9624   0.217E-02    0.340E-03
DAV:  21    -0.357477107676E+02   -0.20937E-07   -0.44009E-07  8380   0.362E-03    0.124E-03
DAV:  22    -0.357477107459E+02    0.21677E-07   -0.18165E-08  6288   0.941E-04    0.872E-04
DAV:  23    -0.357477107074E+02    0.38467E-07   -0.89363E-09  4212   0.903E-04    0.253E-04
DAV:  24    -0.357477107015E+02    0.59190E-08   -0.47652E-09  3896   0.424E-04
   3 F= -.35747711E+02 E0= -.35748168E+02  d E =-.380976E+01  mag=    -0.0000
 curvature:  -0.30 expect dE=-0.654E-01 dE for cont linesearch -0.161E-02
 ZBRENT: interpolating
 opt :   0.5389  next Energy=   -35.749167 (dE=-0.381E+01)
 bond charge predicted
       N       E                     dE             d eps       ncg     rms          rms(c)
DAV:   1    -0.358114584499E+02   -0.63748E-01   -0.41727E-01  7672   0.799E+00    0.295E+00
DAV:   2    -0.362688884154E+02   -0.45743E+00   -0.23223E+00  8568   0.191E+01    0.713E+00
DAV:   3    -0.357454919733E+02    0.52340E+00   -0.11618E+00  8280   0.152E+01    0.243E-01
DAV:   4    -0.357502697355E+02   -0.47778E-02   -0.61624E-02  7320   0.120E+00    0.425E-01
DAV:   5    -0.357490338971E+02    0.12358E-02   -0.30000E-03  8568   0.624E-01    0.500E-02
DAV:   6    -0.357490246083E+02    0.92888E-05   -0.14938E-04  9312   0.856E-02    0.130E-02
DAV:   7    -0.357490231484E+02    0.14598E-05   -0.10268E-05  7544   0.333E-02    0.121E-03
DAV:   8    -0.357490228733E+02    0.27511E-06   -0.25142E-07  7804   0.397E-03    0.783E-04
DAV:   9    -0.357490227095E+02    0.16386E-06   -0.15830E-08  6084   0.786E-04    0.254E-04
DAV:  10    -0.357490226849E+02    0.24595E-07   -0.30628E-09  4180   0.417E-04    0.919E-05
DAV:  11    -0.357490226789E+02    0.59090E-08   -0.81599E-10  3976   0.225E-04
   4 F= -.35749023E+02 E0= -.35749511E+02  d E =-.381107E+01  mag=    -0.0000
 curvature:  -0.27 expect dE=-0.556E-01 dE for cont linesearch -0.725E-04
 ZBRENT: interpolating
 opt :   0.5361  next Energy=   -35.749116 (dE=-0.381E+01)
 bond charge predicted
       N       E                     dE             d eps       ncg     rms          rms(c)
DAV:   1    -0.357540382390E+02   -0.50156E-02   -0.34062E-02  7648   0.229E+00    0.826E-01
DAV:   2    -0.357903813445E+02   -0.36343E-01   -0.18160E-01  8632   0.535E+00    0.211E+00
DAV:   3    -0.357487919871E+02    0.41589E-01   -0.98792E-02  8392   0.420E+00    0.704E-02
DAV:   4    -0.357490869285E+02   -0.29494E-03   -0.35730E-03  7184   0.267E-01    0.101E-01
DAV:   5    -0.357490145985E+02    0.72330E-04   -0.16666E-04  8888   0.149E-01    0.839E-03
DAV:   6    -0.357490144124E+02    0.18615E-06   -0.69971E-06  7248   0.143E-02    0.310E-03
DAV:   7    -0.357490141567E+02    0.25573E-06   -0.59285E-07  8016   0.760E-03    0.332E-04
DAV:   8    -0.357490140977E+02    0.58934E-07   -0.28408E-08  6728   0.120E-03    0.336E-04
DAV:   9    -0.357490140451E+02    0.52581E-07   -0.28283E-09  4064   0.439E-04    0.599E-05
DAV:  10    -0.357490140340E+02    0.11171E-07   -0.68457E-10  3928   0.224E-04    0.621E-05
DAV:  11    -0.357490140337E+02    0.28831E-09   -0.27888E-10  3808   0.175E-04
   5 F= -.35749014E+02 E0= -.35749510E+02  d E =-.381106E+01  mag=    -0.0000
 curvature:  -0.35 expect dE=-0.706E-01 dE for cont linesearch -0.288E-08
 trial: gam= 0.01289 g(F)=  0.180E+00 g(S)=  0.239E-01 ort = 0.362E-03 (trialstep = 0.907E+00)
 search vector abs. value=  0.206E+00
 bond charge predicted
       N       E                     dE             d eps       ncg     rms          rms(c)
DAV:   1    -0.359282189539E+02   -0.17920E+00   -0.43316E+00  7448   0.545E+01    0.443E+00
DAV:   2    -0.367832125391E+02   -0.85499E+00   -0.50956E+00  8464   0.282E+01    0.878E+00
DAV:   3    -0.359055659031E+02    0.87765E+00   -0.21290E+00  8256   0.214E+01    0.790E-01
DAV:   4    -0.359075179830E+02   -0.19521E-02   -0.13165E-01  7568   0.194E+00    0.699E-01
DAV:   5    -0.359044458537E+02    0.30721E-02   -0.17532E-02  8520   0.159E+00    0.192E-01
DAV:   6    -0.359040822217E+02    0.36363E-03   -0.17896E-03  8416   0.517E-01    0.516E-02
DAV:   7    -0.359040722665E+02    0.99552E-05   -0.12928E-04  8648   0.990E-02    0.165E-02
DAV:   8    -0.359040751216E+02   -0.28551E-05   -0.34120E-05  9680   0.588E-02    0.209E-02
DAV:   9    -0.359040696720E+02    0.54496E-05   -0.10093E-05  9520   0.371E-02    0.139E-03
DAV:  10    -0.359040696395E+02    0.32510E-07   -0.82685E-07  7432   0.469E-03    0.401E-04
DAV:  11    -0.359040695974E+02    0.42154E-07   -0.22072E-08  6320   0.125E-03    0.260E-04
DAV:  12    -0.359040695909E+02    0.65129E-08   -0.41161E-09  4120   0.599E-04
   6 F= -.35904070E+02 E0= -.35903991E+02  d E =-.155056E+00  mag=     0.0000
 ZBRENT: can't locate minimum, use default step
 trial-energy change:   -0.155056  1 .order   -0.155931   -0.184635   -0.127227
 step:   3.6289(harm=  2.9178)  dis= 0.17338  next Energy=   -36.108136 (dE=-0.359E+00)
 bond charge predicted
       N       E                     dE             d eps       ncg     rms          rms(c)
DAV:   1    -0.361957917730E+02   -0.29172E+00   -0.38049E+01  7520   0.163E+02    0.139E+01
DAV:   2    -0.430601114115E+02   -0.68643E+01   -0.48018E+01  8296   0.896E+01    0.212E+01
DAV:   3    -0.360000215770E+02    0.70601E+01   -0.16461E+01  8112   0.640E+01    0.312E+00
DAV:   4    -0.360505469144E+02   -0.50525E-01   -0.24629E+00  9600   0.118E+01    0.368E+00
DAV:   5    -0.359792270214E+02    0.71320E-01   -0.75321E-01  8400   0.109E+01    0.174E+00
DAV:   6    -0.359503587349E+02    0.28868E-01   -0.68485E-02  8128   0.353E+00    0.332E-01
DAV:   7    -0.359497072119E+02    0.65152E-03   -0.76261E-03  9440   0.667E-01    0.427E-02
DAV:   8    -0.359497206003E+02   -0.13388E-04   -0.29201E-04  8192   0.111E-01    0.394E-02
DAV:   9    -0.359497164648E+02    0.41355E-05   -0.71801E-05  9432   0.106E-01    0.101E-02
DAV:  10    -0.359497152175E+02    0.12472E-05   -0.71451E-06  9088   0.328E-02    0.366E-03
DAV:  11    -0.359497150105E+02    0.20705E-06   -0.51085E-07  8608   0.762E-03    0.136E-03
DAV:  12    -0.359497149777E+02    0.32729E-07   -0.89836E-08  9336   0.298E-03    0.148E-04
DAV:  13    -0.359497149617E+02    0.16083E-07   -0.37273E-09  4120   0.676E-04    0.117E-04
DAV:  14    -0.359497149578E+02    0.38735E-08   -0.15335E-09  4016   0.520E-04
   7 F= -.35949715E+02 E0= -.35949934E+02  d E =-.200701E+00  mag=     0.0000
 curvature:  -1.29 expect dE=-0.485E+00 dE for cont linesearch -0.787E-01
 ZBRENT: interpolating
 opt :   2.4201  next Energy=   -36.017430 (dE=-0.268E+00)
 bond charge predicted
       N       E                     dE             d eps       ncg     rms          rms(c)
DAV:   1    -0.360438746883E+02   -0.94160E-01   -0.81591E+00  7360   0.736E+01    0.539E+00
DAV:   2    -0.372589230008E+02   -0.12150E+01   -0.77814E+00  8648   0.352E+01    0.124E+01
DAV:   3    -0.360414327670E+02    0.12175E+01   -0.35819E+00  8640   0.241E+01    0.196E+00
DAV:   4    -0.360167274554E+02    0.24705E-01   -0.16282E-01  7744   0.409E+00    0.506E-01
DAV:   5    -0.360143323671E+02    0.23951E-02   -0.91023E-03 10304   0.738E-01    0.102E-01
DAV:   6    -0.360142319305E+02    0.10044E-03   -0.58517E-04  7976   0.226E-01    0.827E-02
DAV:   7    -0.360142084887E+02    0.23442E-04   -0.31851E-04  8464   0.205E-01    0.383E-02
DAV:   8    -0.360141967219E+02    0.11767E-04   -0.42951E-05  7736   0.810E-02    0.818E-03
DAV:   9    -0.360141967909E+02   -0.69012E-07   -0.43953E-06  9192   0.172E-02    0.930E-04
DAV:  10    -0.360141968509E+02   -0.59934E-07   -0.21493E-07  7712   0.368E-03    0.447E-04
DAV:  11    -0.360141968621E+02   -0.11242E-07   -0.90857E-09  4680   0.972E-04    0.745E-05
DAV:  12    -0.360141968637E+02   -0.15671E-08   -0.21729E-09  4048   0.439E-04
   8 F= -.36014197E+02 E0= -.36014036E+02  d E =-.265183E+00  mag=    -0.0000
 curvature:  -1.11 expect dE=-0.114E+00 dE for cont linesearch -0.516E-04
 trial: gam= 0.53664 g(F)=  0.437E-01 g(S)=  0.584E-01 ort = 0.309E-02 (trialstep = 0.121E+01)
 search vector abs. value=  0.165E+00
 bond charge predicted
       N       E                     dE             d eps       ncg     rms          rms(c)
DAV:   1    -0.375753942785E+02   -0.15612E+01   -0.23964E+01  8464   0.111E+02    0.136E+01
DAV:   2    -0.459472672773E+02   -0.83719E+01   -0.43757E+01  8936   0.904E+01    0.387E+01
DAV:   3    -0.363231967180E+02    0.96241E+01   -0.24029E+01  9072   0.597E+01    0.610E+00
DAV:   4    -0.361255500478E+02    0.19765E+00   -0.15833E+00  7560   0.125E+01    0.215E+00
DAV:   5    -0.360820942292E+02    0.43456E-01   -0.10053E-01 10568   0.263E+00    0.687E-01
DAV:   6    -0.360770471567E+02    0.50471E-02   -0.12628E-02  9776   0.965E-01    0.111E-01
DAV:   7    -0.360770711741E+02   -0.24017E-04   -0.17573E-03  7592   0.280E-01    0.449E-02
DAV:   8    -0.360770485259E+02    0.22648E-04   -0.21394E-04  7880   0.155E-01    0.254E-02
DAV:   9    -0.360770478192E+02    0.70672E-06   -0.24621E-05 10256   0.531E-02    0.809E-03
DAV:  10    -0.360770481212E+02   -0.30199E-06   -0.22013E-06  7720   0.131E-02    0.344E-03
DAV:  11    -0.360770481709E+02   -0.49675E-07   -0.28729E-07 10136   0.586E-03    0.387E-04
DAV:  12    -0.360770481378E+02    0.33103E-07   -0.14224E-08  5192   0.883E-04    0.824E-05
DAV:  13    -0.360770481311E+02    0.66484E-08   -0.27315E-09  4064   0.506E-04
   9 F= -.36077048E+02 E0= -.36077281E+02  d E =-.628513E-01  mag=     0.0000
 trial-energy change:   -0.062851  1 .order   -0.063240   -0.125503   -0.000977
 step:   1.2195(harm=  1.2193)  dis= 0.04325  next Energy=   -36.077052 (dE=-0.629E-01)
 bond charge predicted
       N       E                     dE             d eps       ncg     rms          rms(c)
DAV:   1    -0.360771644813E+02   -0.11634E-03   -0.14575E-03  7912   0.900E-01    0.128E-01
DAV:   2    -0.360779185010E+02   -0.75402E-03   -0.43263E-03  8536   0.839E-01    0.302E-01
DAV:   3    -0.360770535488E+02    0.86495E-03   -0.24387E-03  8480   0.650E-01    0.209E-02
DAV:   4    -0.360770570574E+02   -0.35085E-05   -0.76783E-05  7208   0.508E-02    0.133E-02
DAV:   5    -0.360770560576E+02    0.99974E-06   -0.65435E-06  8408   0.293E-02    0.309E-03
DAV:   6    -0.360770560079E+02    0.49722E-07   -0.49263E-07  7712   0.815E-03    0.798E-04
DAV:   7    -0.360770560733E+02   -0.65348E-07   -0.46781E-08  6664   0.167E-03    0.407E-04
DAV:   8    -0.360770560841E+02   -0.10858E-07   -0.56112E-09  3904   0.819E-04    0.624E-05
DAV:   9    -0.360770560934E+02   -0.93150E-08   -0.14577E-09  3752   0.236E-04
  10 F= -.36077056E+02 E0= -.36077291E+02  d E =-.628592E-01  mag=    -0.0000
 curvature:  -0.97 expect dE=-0.372E-01 dE for cont linesearch -0.202E-08
 trial: gam= 0.44276 g(F)=  0.150E-01 g(S)=  0.235E-01 ort =-0.185E-04 (trialstep = 0.121E+01)
 search vector abs. value=  0.707E-01
 bond charge predicted
       N       E                     dE             d eps       ncg     rms          rms(c)
DAV:   1    -0.359831230527E+02    0.93933E-01   -0.74812E+00  7976   0.884E+01    0.497E+00
DAV:   2    -0.372157545057E+02   -0.12326E+01   -0.81231E+00  8688   0.337E+01    0.956E+00
DAV:   3    -0.361080612608E+02    0.11077E+01   -0.27758E+00  8320   0.253E+01    0.794E-01
DAV:   4    -0.361147327787E+02   -0.66715E-02   -0.17162E-01  7936   0.204E+00    0.744E-01
DAV:   5    -0.361121466467E+02    0.25861E-02   -0.36698E-02  8152   0.225E+00    0.500E-01
DAV:   6    -0.361098390983E+02    0.23075E-02   -0.48351E-03  8248   0.863E-01    0.130E-01
DAV:   7    -0.361096871040E+02    0.15199E-03   -0.95170E-04  8944   0.232E-01    0.243E-02
DAV:   8    -0.361096828646E+02    0.42393E-05   -0.90887E-05  9160   0.868E-02    0.231E-02
DAV:   9    -0.361096790918E+02    0.37728E-05   -0.19578E-05  9344   0.539E-02    0.244E-03
DAV:  10    -0.361096789525E+02    0.13922E-06   -0.88591E-07  8248   0.843E-03    0.637E-04
DAV:  11    -0.361096788834E+02    0.69187E-07   -0.81813E-08  7864   0.219E-03    0.184E-04
DAV:  12    -0.361096788728E+02    0.10563E-07   -0.52758E-09  4368   0.585E-04    0.126E-04
DAV:  13    -0.361096788649E+02    0.79262E-08   -0.13015E-09  3968   0.393E-04
  11 F= -.36109679E+02 E0= -.36109876E+02  d E =-.326228E-01  mag=     0.0000
 trial-energy change:   -0.032623  1 .order   -0.032546   -0.046592   -0.018499
 step:   2.0097(harm=  2.0097)  dis= 0.05056  next Energy=   -36.115693 (dE=-0.386E-01)
 bond charge predicted
       N       E                     dE             d eps       ncg     rms          rms(c)
DAV:   1    -0.360572992796E+02    0.52380E-01   -0.32647E+00  7864   0.583E+01    0.318E+00
DAV:   2    -0.365633793463E+02   -0.50608E+00   -0.34214E+00  8824   0.217E+01    0.627E+00
DAV:   3    -0.361161588434E+02    0.44722E+00   -0.11977E+00  8352   0.161E+01    0.608E-01
DAV:   4    -0.361175717731E+02   -0.14129E-02   -0.59487E-02  7952   0.132E+00    0.482E-01
DAV:   5    -0.361161396063E+02    0.14322E-02   -0.13869E-02  8056   0.136E+00    0.257E-01
DAV:   6    -0.361155639252E+02    0.57568E-03   -0.13234E-03  7824   0.432E-01    0.833E-02
DAV:   7    -0.361154909784E+02    0.72947E-04   -0.42890E-04  8928   0.186E-01    0.133E-02
DAV:   8    -0.361154926239E+02   -0.16455E-05   -0.25196E-05  8320   0.337E-02    0.160E-02
DAV:   9    -0.361154902789E+02    0.23450E-05   -0.85978E-06  9760   0.378E-02    0.192E-03
DAV:  10    -0.361154901580E+02    0.12091E-06   -0.50742E-07  8088   0.667E-03    0.508E-04
DAV:  11    -0.361154901124E+02    0.45541E-07   -0.37430E-08  7168   0.190E-03    0.313E-04
DAV:  12    -0.361154900978E+02    0.14655E-07   -0.51264E-09  4072   0.805E-04    0.352E-05
DAV:  13    -0.361154900958E+02    0.20118E-08   -0.13082E-09  3912   0.280E-04
  12 F= -.36115490E+02 E0= -.36115564E+02  d E =-.384340E-01  mag=     0.0000
 curvature:  -1.85 expect dE=-0.517E-01 dE for cont linesearch -0.128E-04
 trial: gam= 0.73651 g(F)=  0.870E-02 g(S)=  0.192E-01 ort =-0.700E-03 (trialstep = 0.137E+01)
 search vector abs. value=  0.653E-01
 bond charge predicted
       N       E                     dE             d eps       ncg     rms          rms(c)
DAV:   1    -0.358404266315E+02    0.27506E+00   -0.97183E+00  7792   0.977E+01    0.343E+00
DAV:   2    -0.365032385944E+02   -0.66281E+00   -0.57908E+00  8296   0.241E+01    0.625E+00
DAV:   3    -0.361714414963E+02    0.33180E+00   -0.12972E+00  8424   0.147E+01    0.171E+00
DAV:   4    -0.361443004077E+02    0.27141E-01   -0.76095E-02  8152   0.335E+00    0.495E-01
DAV:   5    -0.361412118736E+02    0.30885E-02   -0.92134E-03  9816   0.820E-01    0.875E-02
DAV:   6    -0.361411985905E+02    0.13283E-04   -0.10555E-03  7968   0.327E-01    0.736E-02
DAV:   7    -0.361411762778E+02    0.22313E-04   -0.17508E-04  8088   0.163E-01    0.191E-02
DAV:   8    -0.361411766150E+02   -0.33718E-06   -0.16021E-05  7624   0.522E-02    0.295E-03
DAV:   9    -0.361411768658E+02   -0.25078E-06   -0.71526E-07  8776   0.812E-03    0.122E-03
DAV:  10    -0.361411769060E+02   -0.40199E-07   -0.44540E-08  7576   0.172E-03    0.492E-04
DAV:  11    -0.361411769120E+02   -0.59745E-08   -0.85620E-09  4200   0.944E-04
  13 F= -.36141177E+02 E0= -.36141261E+02  d E =-.256868E-01  mag=     0.0000
 trial-energy change:   -0.025687  1 .order   -0.025985   -0.037612   -0.014357
 step:   2.3463(harm=  2.2180)  dis= 0.04490  next Energy=   -36.146174 (dE=-0.307E-01)
 bond charge predicted
       N       E                     dE             d eps       ncg     rms          rms(c)
DAV:   1    -0.359968631609E+02    0.14431E+00   -0.48983E+00  7992   0.695E+01    0.246E+00
DAV:   2    -0.363375880138E+02   -0.34072E+00   -0.29215E+00  8344   0.173E+01    0.453E+00
DAV:   3    -0.361592957274E+02    0.17829E+00   -0.67048E-01  8496   0.107E+01    0.116E+00
DAV:   4    -0.361465417403E+02    0.12754E-01   -0.36428E-02  8064   0.227E+00    0.334E-01
DAV:   5    -0.361451238817E+02    0.14179E-02   -0.43633E-03  9912   0.557E-01    0.576E-02
DAV:   6    -0.361451214522E+02    0.24294E-05   -0.49783E-04  7936   0.226E-01    0.505E-02
DAV:   7    -0.361451109172E+02    0.10535E-04   -0.82933E-05  8072   0.111E-01    0.136E-02
DAV:   8    -0.361451112089E+02   -0.29175E-06   -0.77919E-06  7632   0.363E-02    0.204E-03
DAV:   9    -0.361451113886E+02   -0.17970E-06   -0.31991E-07  8552   0.512E-03    0.870E-04
DAV:  10    -0.361451114244E+02   -0.35768E-07   -0.19536E-08  5512   0.127E-03    0.317E-04
DAV:  11    -0.361451114270E+02   -0.26203E-08   -0.57715E-09  4112   0.595E-04
  14 F= -.36145111E+02 E0= -.36145549E+02  d E =-.296213E-01  mag=     0.0000
 curvature:  -2.58 expect dE=-0.249E-01 dE for cont linesearch -0.350E-03
 ZBRENT: interpolating
 opt :   2.1305  next Energy=   -36.145432 (dE=-0.299E-01)
 bond charge predicted
       N       E                     dE             d eps       ncg     rms          rms(c)
DAV:   1    -0.361386901961E+02    0.64212E-02   -0.24030E-01  8728   0.154E+01    0.576E-01
DAV:   2    -0.361567816730E+02   -0.18091E-01   -0.14926E-01  8432   0.401E+00    0.105E+00
DAV:   3    -0.361458860880E+02    0.10896E-01   -0.34848E-02  8296   0.259E+00    0.212E-01
DAV:   4    -0.361454250164E+02    0.46107E-03   -0.16836E-03  7608   0.406E-01    0.653E-02
DAV:   5    -0.361453760970E+02    0.48919E-04   -0.19688E-04 10248   0.119E-01    0.121E-02
DAV:   6    -0.361453761426E+02   -0.45634E-07   -0.26996E-05  8072   0.556E-02    0.127E-02
DAV:   7    -0.361453750190E+02    0.11236E-05   -0.62612E-06  8016   0.308E-02    0.358E-03
DAV:   8    -0.361453749074E+02    0.11161E-06   -0.42647E-07  7608   0.776E-03    0.105E-03
DAV:   9    -0.361453748624E+02    0.45072E-07   -0.37335E-08  6624   0.185E-03    0.258E-04
DAV:  10    -0.361453748497E+02    0.12616E-07   -0.37224E-09  4064   0.671E-04    0.404E-05
DAV:  11    -0.361453748485E+02    0.12233E-08   -0.10772E-09  3752   0.361E-04
  15 F= -.36145375E+02 E0= -.36145744E+02  d E =-.298848E-01  mag=     0.0000
 curvature:  -2.37 expect dE=-0.188E-01 dE for cont linesearch -0.182E-05
 trial: gam= 0.24285 g(F)=  0.407E-02 g(S)=  0.386E-02 ort = 0.224E-03 (trialstep = 0.152E+01)
 search vector abs. value=  0.119E-01
 bond charge predicted
       N       E                     dE             d eps       ncg     rms          rms(c)
DAV:   1    -0.363046279713E+02   -0.15925E+00   -0.18802E+00  7936   0.278E+01    0.475E+00
DAV:   2    -0.372317785439E+02   -0.92715E+00   -0.57535E+00  8376   0.312E+01    0.963E+00
DAV:   3    -0.361450795039E+02    0.10867E+01   -0.25886E+00  8280   0.244E+01    0.626E-01
DAV:   4    -0.361596292908E+02   -0.14550E-01   -0.21608E-01  8136   0.261E+00    0.100E+00
DAV:   5    -0.361517015642E+02    0.79277E-02   -0.29017E-02  8704   0.211E+00    0.831E-02
DAV:   6    -0.361517124211E+02   -0.10857E-04   -0.11783E-03  7696   0.321E-01    0.273E-02
DAV:   7    -0.361517157320E+02   -0.33109E-05   -0.51259E-05  9848   0.753E-02    0.186E-02
DAV:   8    -0.361517116906E+02    0.40415E-05   -0.11245E-05  8664   0.400E-02    0.280E-03
DAV:   9    -0.361517113168E+02    0.37379E-06   -0.90172E-07  8464   0.728E-03    0.176E-03
DAV:  10    -0.361517111933E+02    0.12342E-06   -0.11534E-07  9248   0.290E-03    0.166E-04
DAV:  11    -0.361517111863E+02    0.70968E-08   -0.57101E-09  4096   0.665E-04
  16 F= -.36151711E+02 E0= -.36152132E+02  d E =-.633634E-02  mag=     0.0000
 trial-energy change:   -0.006336  1 .order   -0.006292   -0.012152   -0.000432
 step:   1.5781(harm=  1.5794)  dis= 0.01365  next Energy=   -36.151719 (dE=-0.634E-02)
 bond charge predicted
       N       E                     dE             d eps       ncg     rms          rms(c)
DAV:   1    -0.361519099171E+02   -0.19872E-03   -0.24601E-03  7928   0.100E+00    0.163E-01
DAV:   2    -0.361530260901E+02   -0.11162E-02   -0.66909E-03  8504   0.108E+00    0.365E-01
DAV:   3    -0.361517170208E+02    0.13091E-02   -0.36354E-03  8496   0.821E-01    0.271E-02
DAV:   4    -0.361517201739E+02   -0.31531E-05   -0.13275E-04  7160   0.637E-02    0.165E-02
DAV:   5    -0.361517182648E+02    0.19091E-05   -0.86514E-06  8328   0.341E-02    0.167E-03
DAV:   6    -0.361517182271E+02    0.37712E-07   -0.40864E-07  7408   0.653E-03    0.127E-03
DAV:   7    -0.361517181544E+02    0.72650E-07   -0.27283E-08  5776   0.191E-03    0.210E-04
DAV:   8    -0.361517181372E+02    0.17278E-07   -0.65546E-09  3912   0.103E-03    0.816E-05
DAV:   9    -0.361517181269E+02    0.10263E-07   -0.19268E-09  3720   0.393E-04    0.348E-05
DAV:  10    -0.361517181260E+02    0.94042E-09   -0.56463E-10  3656   0.215E-04
  17 F= -.36151718E+02 E0= -.36152135E+02  d E =-.634328E-02  mag=    -0.0000
 curvature:  -1.18 expect dE=-0.607E-02 dE for cont linesearch -0.775E-08
 trial: gam= 0.62704 g(F)=  0.200E-02 g(S)=  0.316E-02 ort =-0.885E-05 (trialstep = 0.153E+01)
 search vector abs. value=  0.982E-02
 bond charge predicted
       N       E                     dE             d eps       ncg     rms          rms(c)
DAV:   1    -0.361962091824E+02   -0.44491E-01   -0.99544E-01  7336   0.241E+01    0.270E+00
DAV:   2    -0.365063290830E+02   -0.31012E+00   -0.18280E+00  8632   0.177E+01    0.640E+00
DAV:   3    -0.361565813785E+02    0.34975E+00   -0.10745E+00  8576   0.131E+01    0.683E-01
DAV:   4    -0.361554682748E+02    0.11131E-02   -0.34987E-02  7312   0.153E+00    0.247E-01
DAV:   5    -0.361550360911E+02    0.43218E-03   -0.22572E-03  9608   0.480E-01    0.451E-02
DAV:   6    -0.361550188090E+02    0.17282E-04   -0.26275E-04  7664   0.188E-01    0.400E-02
DAV:   7    -0.361550087256E+02    0.10083E-04   -0.19034E-05  8768   0.537E-02    0.891E-03
DAV:   8    -0.361550091658E+02   -0.44016E-06   -0.40817E-06  9944   0.192E-02    0.360E-03
DAV:   9    -0.361550092788E+02   -0.11304E-06   -0.40178E-07  8048   0.699E-03    0.787E-04
DAV:  10    -0.361550093353E+02   -0.56474E-07   -0.18678E-08  5272   0.104E-03    0.361E-04
DAV:  11    -0.361550093517E+02   -0.16368E-07   -0.49448E-09  3976   0.491E-04    0.315E-05
DAV:  12    -0.361550093518E+02   -0.14097E-09   -0.96471E-10  3832   0.244E-04
  18 F= -.36155009E+02 E0= -.36155355E+02  d E =-.329123E-02  mag=     0.0000
 trial-energy change:   -0.003291  1 .order   -0.003323   -0.007909    0.001263
 step:   1.3191(harm=  1.3229)  dis= 0.01141  next Energy=   -36.155098 (dE=-0.338E-02)
 bond charge predicted
       N       E                     dE             d eps       ncg     rms          rms(c)
DAV:   1    -0.361559228378E+02   -0.91349E-03   -0.19332E-02  7336   0.337E+00    0.389E-01
DAV:   2    -0.361621591432E+02   -0.62363E-02   -0.37846E-02  8528   0.253E+00    0.842E-01
DAV:   3    -0.361550930259E+02    0.70661E-02   -0.19837E-02  8432   0.192E+00    0.690E-02
DAV:   4    -0.361551081478E+02   -0.15122E-04   -0.72502E-04  7328   0.164E-01    0.399E-02
DAV:   5    -0.361550978929E+02    0.10255E-04   -0.60982E-05  8400   0.908E-02    0.826E-03
DAV:   6    -0.361550972445E+02    0.64843E-06   -0.67940E-06  7632   0.314E-02    0.515E-03
DAV:   7    -0.361550969714E+02    0.27308E-06   -0.28778E-07  9056   0.588E-03    0.162E-03
DAV:   8    -0.361550968888E+02    0.82647E-07   -0.10956E-07  8232   0.335E-03    0.344E-04
DAV:   9    -0.361550968609E+02    0.27860E-07   -0.54238E-09  3968   0.570E-04    0.269E-04
DAV:  10    -0.361550968502E+02    0.10754E-07   -0.15372E-09  3872   0.464E-04    0.585E-05
DAV:  11    -0.361550968474E+02    0.27458E-08   -0.55386E-10  3704   0.146E-04
  19 F= -.36155097E+02 E0= -.36155455E+02  d E =-.337872E-02  mag=     0.0000
 curvature:  -1.26 expect dE=-0.205E-02 dE for cont linesearch -0.163E-09
 trial: gam= 0.30589 g(F)=  0.635E-03 g(S)=  0.994E-03 ort =-0.113E-05 (trialstep = 0.149E+01)
 search vector abs. value=  0.255E-02
 bond charge predicted
       N       E                     dE             d eps       ncg     rms          rms(c)
DAV:   1    -0.361505999560E+02    0.44969E-02   -0.41090E-01  7816   0.195E+01    0.108E+00
DAV:   2    -0.362035328072E+02   -0.52933E-01   -0.37422E-01  8792   0.725E+00    0.212E+00
DAV:   3    -0.361573752966E+02    0.46158E-01   -0.13527E-01  8320   0.516E+00    0.299E-01
DAV:   4    -0.361567422513E+02    0.63305E-03   -0.57004E-03  7632   0.566E-01    0.129E-01
DAV:   5    -0.361565827242E+02    0.15953E-03   -0.76673E-04  8912   0.287E-01    0.357E-02
DAV:   6    -0.361565728810E+02    0.98432E-05   -0.81276E-05  7632   0.106E-01    0.115E-02
DAV:   7    -0.361565723064E+02    0.57466E-06   -0.55403E-06  7784   0.180E-02    0.701E-03
DAV:   8    -0.361565719157E+02    0.39065E-06   -0.12364E-06  9088   0.106E-02    0.924E-04
DAV:   9    -0.361565718673E+02    0.48391E-07   -0.10652E-07  9576   0.307E-03    0.984E-04
DAV:  10    -0.361565718149E+02    0.52396E-07   -0.19802E-08  4704   0.184E-03    0.123E-04
DAV:  11    -0.361565718070E+02    0.79726E-08   -0.48164E-09  3824   0.364E-04
  20 F= -.36156572E+02 E0= -.36156965E+02  d E =-.147496E-02  mag=    -0.0000
 trial-energy change:   -0.001475  1 .order   -0.001463   -0.002427   -0.000498
 step:   1.8583(harm=  1.8759)  dis= 0.00679  next Energy=   -36.156633 (dE=-0.154E-02)
 bond charge predicted
       N       E                     dE             d eps       ncg     rms          rms(c)
DAV:   1    -0.361562738396E+02    0.29798E-03   -0.25035E-02  7808   0.480E+00    0.264E-01
DAV:   2    -0.361594557294E+02   -0.31819E-02   -0.22518E-02  8720   0.178E+00    0.526E-01
DAV:   3    -0.361566928219E+02    0.27629E-02   -0.82937E-03  8320   0.125E+00    0.775E-02
DAV:   4    -0.361566474968E+02    0.45325E-04   -0.33121E-04  7472   0.148E-01    0.306E-02
DAV:   5    -0.361566378449E+02    0.96519E-05   -0.41554E-05  9320   0.643E-02    0.769E-03
DAV:   6    -0.361566373608E+02    0.48408E-06   -0.46553E-06  7664   0.253E-02    0.332E-03
DAV:   7    -0.361566372504E+02    0.11032E-06   -0.22817E-07  7976   0.396E-03    0.165E-03
DAV:   8    -0.361566371965E+02    0.53992E-07   -0.76004E-08  8472   0.269E-03    0.199E-04
DAV:   9    -0.361566371821E+02    0.14379E-07   -0.33695E-09  3880   0.479E-04    0.219E-04
DAV:  10    -0.361566371727E+02    0.93532E-08   -0.17693E-09  3760   0.551E-04
  21 F= -.36156637E+02 E0= -.36157031E+02  d E =-.154033E-02  mag=    -0.0000
 curvature:  -1.46 expect dE=-0.761E-03 dE for cont linesearch -0.102E-06
 trial: gam= 0.31973 g(F)=  0.267E-03 g(S)=  0.253E-03 ort = 0.133E-04 (trialstep = 0.156E+01)
 search vector abs. value=  0.789E-03
 bond charge predicted
       N       E                     dE             d eps       ncg     rms          rms(c)
DAV:   1    -0.361626442533E+02   -0.60071E-02   -0.18230E-01  7872   0.119E+01    0.114E+00
DAV:   2    -0.362203607973E+02   -0.57717E-01   -0.34432E-01  8584   0.756E+00    0.261E+00
DAV:   3    -0.361570618570E+02    0.63299E-01   -0.18846E-01  8472   0.570E+00    0.250E-01
DAV:   4    -0.361571317843E+02   -0.69927E-04   -0.60478E-03  7248   0.540E-01    0.136E-01
DAV:   5    -0.361570107426E+02    0.12104E-03   -0.67841E-04  8560   0.297E-01    0.355E-02
DAV:   6    -0.361569986453E+02    0.12097E-04   -0.46917E-05  7672   0.782E-02    0.104E-02
DAV:   7    -0.361569980765E+02    0.56882E-06   -0.85530E-06  8264   0.248E-02    0.380E-03
DAV:   8    -0.361569981338E+02   -0.57346E-07   -0.66822E-07  8336   0.867E-03    0.594E-04
DAV:   9    -0.361569981769E+02   -0.43059E-07   -0.38582E-08  7224   0.162E-03    0.335E-04
DAV:  10    -0.361569982122E+02   -0.35342E-07   -0.47021E-09  4024   0.719E-04    0.904E-05
DAV:  11    -0.361569982195E+02   -0.72605E-08   -0.94434E-10  3880   0.227E-04
  22 F= -.36156998E+02 E0= -.36157412E+02  d E =-.361047E-03  mag=    -0.0000
 trial-energy change:   -0.000361  1 .order   -0.000364   -0.000820    0.000091
 step:   1.4048(harm=  1.4080)  dis= 0.00343  next Energy=   -36.157003 (dE=-0.366E-03)
 bond charge predicted
       N       E                     dE             d eps       ncg     rms          rms(c)
DAV:   1    -0.361570623920E+02   -0.64180E-04   -0.18925E-03  7888   0.122E+00    0.118E-01
DAV:   2    -0.361576781428E+02   -0.61575E-03   -0.36803E-03  8568   0.780E-01    0.261E-01
DAV:   3    -0.361570028420E+02    0.67530E-03   -0.19156E-03  8488   0.595E-01    0.218E-02
DAV:   4    -0.361570048047E+02   -0.19628E-05   -0.64868E-05  7216   0.490E-02    0.144E-02
DAV:   5    -0.361570033149E+02    0.14898E-05   -0.82823E-06  8176   0.336E-02    0.445E-03
DAV:   6    -0.361570030814E+02    0.23349E-06   -0.58654E-07  7680   0.887E-03    0.131E-03
DAV:   7    -0.361570029802E+02    0.10120E-06   -0.14410E-07  8432   0.341E-03    0.400E-04
DAV:   8    -0.361570029662E+02    0.14062E-07   -0.64672E-09  3912   0.800E-04    0.117E-04
DAV:   9    -0.361570029625E+02    0.37071E-08   -0.16275E-09  3672   0.254E-04
  23 F= -.36157003E+02 E0= -.36157415E+02  d E =-.365790E-03  mag=    -0.0000
 curvature:  -1.06 expect dE=-0.229E-03 dE for cont linesearch -0.493E-08
 trial: gam= 0.42241 g(F)=  0.845E-04 g(S)=  0.132E-03 ort = 0.192E-05 (trialstep = 0.153E+01)
 search vector abs. value=  0.359E-03
 bond charge predicted
       N       E                     dE             d eps       ncg     rms          rms(c)
DAV:   1    -0.361596893695E+02   -0.26864E-02   -0.49110E-02  7640   0.559E+00    0.667E-01
DAV:   2    -0.361786753759E+02   -0.18986E-01   -0.11345E-01  8464   0.441E+00    0.147E+00
DAV:   3    -0.361570666273E+02    0.21609E-01   -0.59952E-02  8408   0.337E+00    0.105E-01
DAV:   4    -0.361571732328E+02   -0.10661E-03   -0.22135E-03  7264   0.258E-01    0.782E-02
DAV:   5    -0.361571335213E+02    0.39711E-04   -0.23330E-04  8176   0.183E-01    0.215E-02
DAV:   6    -0.361571290008E+02    0.45205E-05   -0.20129E-05  7736   0.544E-02    0.479E-03
DAV:   7    -0.361571284875E+02    0.51339E-06   -0.16905E-06  7840   0.917E-03    0.172E-03
DAV:   8    -0.361571283986E+02    0.88828E-07   -0.16325E-07  7968   0.348E-03    0.426E-04
DAV:   9    -0.361571283612E+02    0.37421E-07   -0.10764E-08  4576   0.124E-03    0.241E-04
DAV:  10    -0.361571283422E+02    0.18961E-07   -0.49385E-09  3944   0.915E-04    0.509E-05
DAV:  11    -0.361571283396E+02    0.26093E-08   -0.96265E-10  3736   0.273E-04
  24 F= -.36157128E+02 E0= -.36157542E+02  d E =-.125377E-03  mag=    -0.0000
 trial-energy change:   -0.000125  1 .order   -0.000122   -0.000333    0.000089
 step:   1.2220(harm=  1.2103)  dis= 0.00211  next Energy=   -36.157137 (dE=-0.134E-03)
 bond charge predicted
       N       E                     dE             d eps       ncg     rms          rms(c)
DAV:   1    -0.361572424639E+02   -0.11412E-03   -0.20219E-03  7640   0.113E+00    0.134E-01
DAV:   2    -0.361580098369E+02   -0.76737E-03   -0.45848E-03  8496   0.888E-01    0.300E-01
DAV:   3    -0.361571348722E+02    0.87496E-03   -0.24972E-03  8448   0.674E-01    0.236E-02
DAV:   4    -0.361571382346E+02   -0.33625E-05   -0.84273E-05  7240   0.550E-02    0.149E-02
DAV:   5    -0.361571369462E+02    0.12884E-05   -0.84152E-06  8280   0.341E-02    0.395E-03
DAV:   6    -0.361571368402E+02    0.10600E-06   -0.75848E-07  7704   0.105E-02    0.102E-03
DAV:   7    -0.361571369029E+02   -0.62635E-07   -0.55332E-08  7184   0.159E-03    0.370E-04
DAV:   8    -0.361571369174E+02   -0.14559E-07   -0.57250E-09  3928   0.807E-04    0.630E-05
DAV:   9    -0.361571369259E+02   -0.85001E-08   -0.14139E-09  3664   0.281E-04
  25 F= -.36157137E+02 E0= -.36157550E+02  d E =-.133963E-03  mag=     0.0000
 curvature:  -1.00 expect dE=-0.475E-04 dE for cont linesearch -0.745E-08
 trial: gam= 0.23138 g(F)=  0.199E-04 g(S)=  0.277E-04 ort =-0.164E-05 (trialstep = 0.147E+01)
 search vector abs. value=  0.660E-04
 bond charge predicted
       N       E                     dE             d eps       ncg     rms          rms(c)
DAV:   1    -0.361574592234E+02   -0.32231E-03   -0.61578E-03  7872   0.145E+00    0.203E-01
DAV:   2    -0.361589679922E+02   -0.15088E-02   -0.96621E-03  8536   0.130E+00    0.432E-01
DAV:   3    -0.361571810867E+02    0.17869E-02   -0.51007E-03  8464   0.958E-01    0.466E-02
DAV:   4    -0.361571688606E+02    0.12226E-04   -0.19772E-04  7352   0.965E-02    0.190E-02
DAV:   5    -0.361571665546E+02    0.23060E-05   -0.15446E-05  8312   0.432E-02    0.250E-03
DAV:   6    -0.361571665576E+02   -0.30041E-08   -0.87532E-07  7560   0.112E-02    0.208E-03
DAV:   7    -0.361571665821E+02   -0.24488E-07   -0.70304E-08  8328   0.262E-03    0.343E-04
DAV:   8    -0.361571666180E+02   -0.35917E-07   -0.12148E-08  4120   0.915E-04    0.124E-04
DAV:   9    -0.361571666273E+02   -0.93714E-08   -0.19445E-09  3856   0.409E-04
  26 F= -.36157167E+02 E0= -.36157570E+02  d E =-.297014E-04  mag=    -0.0000
 trial-energy change:   -0.000030  1 .order   -0.000031   -0.000069    0.000008
 step:   1.3120(harm=  1.3254)  dis= 0.00081  next Energy=   -36.157167 (dE=-0.301E-04)
 bond charge predicted
       N       E                     dE             d eps       ncg     rms          rms(c)
DAV:   1    -0.361571703871E+02   -0.37691E-05   -0.71400E-05  7872   0.157E-01    0.220E-02
DAV:   2    -0.361571885703E+02   -0.18183E-04   -0.11288E-04  8512   0.140E-01    0.465E-02
DAV:   3    -0.361571673279E+02    0.21242E-04   -0.59063E-05  8448   0.104E-01    0.496E-03
DAV:   4    -0.361571671662E+02    0.16174E-06   -0.23569E-06  7344   0.103E-02    0.215E-03
DAV:   5    -0.361571671473E+02    0.18845E-07   -0.18989E-07  8240   0.490E-03    0.268E-04
DAV:   6    -0.361571671440E+02    0.33142E-08   -0.94805E-09  3896   0.122E-03
  27 F= -.36157167E+02 E0= -.36157572E+02  d E =-.302181E-04  mag=    -0.0000
 curvature:  -0.92 expect dE=-0.718E-05 dE for cont linesearch -0.690E-09
 trial: gam= 0.16713 g(F)=  0.393E-05 g(S)=  0.388E-05 ort =-0.223E-06 (trialstep = 0.144E+01)
 search vector abs. value=  0.958E-05
 bond charge predicted
       N       E                     dE             d eps       ncg     rms          rms(c)
DAV:   1    -0.361571886614E+02   -0.21514E-04   -0.37390E-03  8176   0.187E+00    0.132E-01
DAV:   2    -0.361579887068E+02   -0.80005E-03   -0.49962E-03  8576   0.876E-01    0.286E-01
DAV:   3    -0.361571747215E+02    0.81399E-03   -0.23529E-03  8400   0.661E-01    0.283E-02
DAV:   4    -0.361571751856E+02   -0.46404E-06   -0.82683E-05  7232   0.592E-02    0.174E-02
DAV:   5    -0.361571728117E+02    0.23738E-05   -0.12563E-05  8264   0.403E-02    0.541E-03
DAV:   6    -0.361571724816E+02    0.33016E-06   -0.85824E-07  7752   0.103E-02    0.188E-03
DAV:   7    -0.361571723311E+02    0.15046E-06   -0.25647E-07  8560   0.476E-03    0.583E-04
DAV:   8    -0.361571723081E+02    0.22996E-07   -0.12878E-08  4728   0.107E-03    0.142E-04
DAV:   9    -0.361571723062E+02    0.19254E-08   -0.26279E-09  3712   0.346E-04
  28 F= -.36157172E+02 E0= -.36157576E+02  d E =-.516219E-05  mag=    -0.0000
 trial-energy change:   -0.000005  1 .order   -0.000005   -0.000011    0.000001
 step:   1.3348(harm=  1.3348)  dis= 0.00032  next Energy=   -36.157172 (dE=-0.519E-05)
 bond charge predicted
       N       E                     dE             d eps       ncg     rms          rms(c)
DAV:   1    -0.361571724446E+02   -0.13648E-06   -0.19457E-05  8096   0.135E-01    0.957E-03
DAV:   2    -0.361571763608E+02   -0.39162E-05   -0.26354E-05  8576   0.637E-02    0.208E-02
DAV:   3    -0.361571722579E+02    0.41029E-05   -0.12424E-05  8432   0.479E-02    0.208E-03
DAV:   4    -0.361571722859E+02   -0.28014E-07   -0.43477E-07  7216   0.435E-03    0.127E-03
DAV:   5    -0.361571722946E+02   -0.86866E-08   -0.65141E-08  6648   0.292E-03
  29 F= -.36157172E+02 E0= -.36157576E+02  d E =-.515063E-05  mag=    -0.0000
 curvature:  -0.82 expect dE=-0.210E-05 dE for cont linesearch -0.104E-06
 trial: gam= 0.14803 g(F)=  0.183E-05 g(S)=  0.722E-06 ort = 0.110E-05 (trialstep = 0.142E+01)
 search vector abs. value=  0.309E-05
 reached required accuracy - stopping structural energy minimisation
 writing wavefunctions
