   4   4   0   0
  0.1411984E+02  0.4720035E-09  0.4720035E-09  0.4720035E-09  0.5000000E-15
  1.000000000000000E-004
  CAR 
 unknown system                          
     23.96498098    -58.68499663  301      8.82898440      1.00000000
    -58.685  0.0000E+00  0.0000E+00  0.0000E+00  0.0000E+00
    -58.409  0.0000E+00  0.0000E+00  0.0000E+00  0.0000E+00
    -58.134  0.0000E+00  0.0000E+00  0.0000E+00  0.0000E+00
    -57.858  0.0000E+00  0.0000E+00  0.0000E+00  0.0000E+00
    -57.583  0.0000E+00  0.0000E+00  0.0000E+00  0.0000E+00
    -57.307  0.0000E+00  0.0000E+00  0.0000E+00  0.0000E+00
    -57.032  0.0000E+00  0.0000E+00  0.0000E+00  0.0000E+00
    -56.756  0.0000E+00  0.0000E+00  0.0000E+00  0.0000E+00
    -56.481  0.0000E+00  0.0000E+00  0.0000E+00  0.0000E+00
    -56.205  0.0000E+00  0.0000E+00  0.0000E+00  0.0000E+00
    -55.930  0.0000E+00  0.0000E+00  0.0000E+00  0.0000E+00
    -55.654  0.0000E+00  0.0000E+00  0.0000E+00  0.0000E+00
    -55.379  0.0000E+00  0.0000E+00  0.0000E+00  0.0000E+00
    -55.103  0.0000E+00  0.0000E+00  0.0000E+00  0.0000E+00
    -54.828  0.0000E+00  0.0000E+00  0.3000E+01  0.3000E+01
    -54.552  0.0000E+00  0.0000E+00  0.3000E+01  0.3000E+01
    -54.277  0.0000E+00  0.0000E+00  0.3000E+01  0.3000E+01
    -54.001  0.0000E+00  0.0000E+00  0.3000E+01  0.3000E+01
    -53.726  0.0000E+00  0.0000E+00  0.3000E+01  0.3000E+01
    -53.450  0.0000E+00  0.0000E+00  0.3000E+01  0.3000E+01
    -53.175  0.0000E+00  0.0000E+00  0.3000E+01  0.3000E+01
    -52.899  0.0000E+00  0.0000E+00  0.3000E+01  0.3000E+01
    -52.624  0.0000E+00  0.0000E+00  0.3000E+01  0.3000E+01
    -52.348  0.0000E+00  0.0000E+00  0.3000E+01  0.3000E+01
    -52.073  0.0000E+00  0.0000E+00  0.3000E+01  0.3000E+01
    -51.797  0.0000E+00  0.0000E+00  0.3000E+01  0.3000E+01
    -51.522  0.0000E+00  0.0000E+00  0.3000E+01  0.3000E+01
    -51.246  0.0000E+00  0.0000E+00  0.3000E+01  0.3000E+01
    -50.971  0.0000E+00  0.0000E+00  0.3000E+01  0.3000E+01
    -50.695  0.0000E+00  0.0000E+00  0.3000E+01  0.3000E+01
    -50.420  0.0000E+00  0.0000E+00  0.3000E+01  0.3000E+01
    -50.144  0.0000E+00  0.0000E+00  0.3000E+01  0.3000E+01
    -49.869  0.0000E+00  0.0000E+00  0.3000E+01  0.3000E+01
    -49.593  0.0000E+00  0.0000E+00  0.3000E+01  0.3000E+01
    -49.318  0.0000E+00  0.0000E+00  0.3000E+01  0.3000E+01
    -49.042  0.0000E+00  0.0000E+00  0.3000E+01  0.3000E+01
    -48.767  0.0000E+00  0.0000E+00  0.3000E+01  0.3000E+01
    -48.491  0.0000E+00  0.0000E+00  0.3000E+01  0.3000E+01
    -48.216  0.0000E+00  0.0000E+00  0.3000E+01  0.3000E+01
    -47.940  0.0000E+00  0.0000E+00  0.3000E+01  0.3000E+01
    -47.665  0.0000E+00  0.0000E+00  0.3000E+01  0.3000E+01
    -47.389  0.0000E+00  0.0000E+00  0.3000E+01  0.3000E+01
    -47.114  0.0000E+00  0.0000E+00  0.3000E+01  0.3000E+01
    -46.838  0.0000E+00  0.0000E+00  0.3000E+01  0.3000E+01
    -46.563  0.0000E+00  0.0000E+00  0.3000E+01  0.3000E+01
    -46.287  0.0000E+00  0.0000E+00  0.3000E+01  0.3000E+01
    -46.012  0.0000E+00  0.0000E+00  0.3000E+01  0.3000E+01
    -45.737  0.0000E+00  0.0000E+00  0.3000E+01  0.3000E+01
    -45.461  0.0000E+00  0.0000E+00  0.3000E+01  0.3000E+01
    -45.186  0.0000E+00  0.0000E+00  0.3000E+01  0.3000E+01
    -44.910  0.0000E+00  0.0000E+00  0.3000E+01  0.3000E+01
    -44.635  0.0000E+00  0.0000E+00  0.3000E+01  0.3000E+01
    -44.359  0.0000E+00  0.0000E+00  0.3000E+01  0.3000E+01
    -44.084  0.0000E+00  0.0000E+00  0.3000E+01  0.3000E+01
    -43.808  0.0000E+00  0.0000E+00  0.3000E+01  0.3000E+01
    -43.533  0.0000E+00  0.0000E+00  0.3000E+01  0.3000E+01
    -43.257  0.0000E+00  0.0000E+00  0.3000E+01  0.3000E+01
    -42.982  0.0000E+00  0.0000E+00  0.3000E+01  0.3000E+01
    -42.706  0.0000E+00  0.0000E+00  0.3000E+01  0.3000E+01
    -42.431  0.0000E+00  0.0000E+00  0.3000E+01  0.3000E+01
    -42.155  0.0000E+00  0.0000E+00  0.3000E+01  0.3000E+01
    -41.880  0.0000E+00  0.0000E+00  0.3000E+01  0.3000E+01
    -41.604  0.0000E+00  0.0000E+00  0.3000E+01  0.3000E+01
    -41.329  0.0000E+00  0.0000E+00  0.3000E+01  0.3000E+01
    -41.053  0.0000E+00  0.0000E+00  0.3000E+01  0.3000E+01
    -40.778  0.0000E+00  0.0000E+00  0.3000E+01  0.3000E+01
    -40.502  0.0000E+00  0.0000E+00  0.3000E+01  0.3000E+01
    -40.227  0.0000E+00  0.0000E+00  0.3000E+01  0.3000E+01
    -39.951  0.0000E+00  0.0000E+00  0.3000E+01  0.3000E+01
    -39.676  0.0000E+00  0.0000E+00  0.3000E+01  0.3000E+01
    -39.400  0.0000E+00  0.0000E+00  0.3000E+01  0.3000E+01
    -39.125  0.0000E+00  0.0000E+00  0.3000E+01  0.3000E+01
    -38.849  0.0000E+00  0.0000E+00  0.3000E+01  0.3000E+01
    -38.574  0.0000E+00  0.0000E+00  0.3000E+01  0.3000E+01
    -38.298  0.0000E+00  0.0000E+00  0.3000E+01  0.3000E+01
    -38.023  0.0000E+00  0.0000E+00  0.3000E+01  0.3000E+01
    -37.747  0.0000E+00  0.0000E+00  0.3000E+01  0.3000E+01
    -37.472  0.0000E+00  0.0000E+00  0.3000E+01  0.3000E+01
    -37.196  0.0000E+00  0.0000E+00  0.3000E+01  0.3000E+01
    -36.921  0.0000E+00  0.0000E+00  0.3000E+01  0.3000E+01
    -36.645  0.0000E+00  0.0000E+00  0.3000E+01  0.3000E+01
    -36.370  0.0000E+00  0.0000E+00  0.3000E+01  0.3000E+01
    -36.094  0.0000E+00  0.0000E+00  0.3000E+01  0.3000E+01
    -35.819  0.0000E+00  0.0000E+00  0.3000E+01  0.3000E+01
    -35.543  0.0000E+00  0.0000E+00  0.3000E+01  0.3000E+01
    -35.268  0.0000E+00  0.0000E+00  0.3000E+01  0.3000E+01
    -34.992  0.0000E+00  0.0000E+00  0.3000E+01  0.3000E+01
    -34.717  0.0000E+00  0.0000E+00  0.3000E+01  0.3000E+01
    -34.441  0.0000E+00  0.0000E+00  0.3000E+01  0.3000E+01
    -34.166  0.0000E+00  0.0000E+00  0.3000E+01  0.3000E+01
    -33.890  0.0000E+00  0.0000E+00  0.3000E+01  0.3000E+01
    -33.615  0.0000E+00  0.0000E+00  0.3000E+01  0.3000E+01
    -33.339  0.0000E+00  0.0000E+00  0.3000E+01  0.3000E+01
    -33.064  0.0000E+00  0.0000E+00  0.3000E+01  0.3000E+01
    -32.788  0.0000E+00  0.0000E+00  0.3000E+01  0.3000E+01
    -32.513  0.0000E+00  0.0000E+00  0.3000E+01  0.3000E+01
    -32.237  0.0000E+00  0.0000E+00  0.3000E+01  0.3000E+01
    -31.962  0.0000E+00  0.0000E+00  0.3000E+01  0.3000E+01
    -31.686  0.0000E+00  0.0000E+00  0.3000E+01  0.3000E+01
    -31.411  0.0000E+00  0.0000E+00  0.3000E+01  0.3000E+01
    -31.135  0.0000E+00  0.0000E+00  0.3000E+01  0.3000E+01
    -30.860  0.0000E+00  0.0000E+00  0.3000E+01  0.3000E+01
    -30.584  0.0000E+00  0.0000E+00  0.3000E+01  0.3000E+01
    -30.309  0.0000E+00  0.0000E+00  0.3000E+01  0.3000E+01
    -30.033  0.0000E+00  0.0000E+00  0.3000E+01  0.3000E+01
    -29.758  0.0000E+00  0.0000E+00  0.3000E+01  0.3000E+01
    -29.482  0.0000E+00  0.0000E+00  0.3000E+01  0.3000E+01
    -29.207  0.0000E+00  0.0000E+00  0.3000E+01  0.3000E+01
    -28.931  0.0000E+00  0.0000E+00  0.3000E+01  0.3000E+01
    -28.656  0.0000E+00  0.0000E+00  0.3000E+01  0.3000E+01
    -28.380  0.0000E+00  0.0000E+00  0.3000E+01  0.3000E+01
    -28.105  0.0000E+00  0.0000E+00  0.3000E+01  0.3000E+01
    -27.829  0.0000E+00  0.0000E+00  0.3000E+01  0.3000E+01
    -27.554  0.0000E+00  0.0000E+00  0.3000E+01  0.3000E+01
    -27.278  0.0000E+00  0.0000E+00  0.3000E+01  0.3000E+01
    -27.003  0.0000E+00  0.0000E+00  0.3000E+01  0.3000E+01
    -26.727  0.0000E+00  0.0000E+00  0.3000E+01  0.3000E+01
    -26.452  0.0000E+00  0.0000E+00  0.3000E+01  0.3000E+01
    -26.176  0.0000E+00  0.0000E+00  0.3000E+01  0.3000E+01
    -25.901  0.0000E+00  0.0000E+00  0.3000E+01  0.3000E+01
    -25.625  0.0000E+00  0.0000E+00  0.3000E+01  0.3000E+01
    -25.350  0.0000E+00  0.0000E+00  0.3000E+01  0.3000E+01
    -25.074  0.0000E+00  0.0000E+00  0.3000E+01  0.3000E+01
    -24.799  0.0000E+00  0.0000E+00  0.3000E+01  0.3000E+01
    -24.523  0.0000E+00  0.0000E+00  0.3000E+01  0.3000E+01
    -24.248  0.0000E+00  0.0000E+00  0.3000E+01  0.3000E+01
    -23.972  0.0000E+00  0.0000E+00  0.3000E+01  0.3000E+01
    -23.697  0.0000E+00  0.0000E+00  0.3000E+01  0.3000E+01
    -23.421  0.0000E+00  0.0000E+00  0.3000E+01  0.3000E+01
    -23.146  0.0000E+00  0.0000E+00  0.3000E+01  0.3000E+01
    -22.870  0.0000E+00  0.0000E+00  0.3000E+01  0.3000E+01
    -22.595  0.0000E+00  0.0000E+00  0.3000E+01  0.3000E+01
    -22.319  0.0000E+00  0.0000E+00  0.3000E+01  0.3000E+01
    -22.044  0.0000E+00  0.0000E+00  0.3000E+01  0.3000E+01
    -21.768  0.0000E+00  0.0000E+00  0.3000E+01  0.3000E+01
    -21.493  0.0000E+00  0.0000E+00  0.3000E+01  0.3000E+01
    -21.217  0.0000E+00  0.0000E+00  0.3000E+01  0.3000E+01
    -20.942  0.0000E+00  0.0000E+00  0.3000E+01  0.3000E+01
    -20.666  0.0000E+00  0.0000E+00  0.3000E+01  0.3000E+01
    -20.391  0.0000E+00  0.0000E+00  0.3000E+01  0.3000E+01
    -20.115  0.0000E+00  0.0000E+00  0.3000E+01  0.3000E+01
    -19.840  0.0000E+00  0.0000E+00  0.3000E+01  0.3000E+01
    -19.564  0.0000E+00  0.0000E+00  0.3000E+01  0.3000E+01
    -19.289  0.0000E+00  0.0000E+00  0.3000E+01  0.3000E+01
    -19.013  0.0000E+00  0.0000E+00  0.3000E+01  0.3000E+01
    -18.738  0.0000E+00  0.0000E+00  0.3000E+01  0.3000E+01
    -18.462  0.0000E+00  0.0000E+00  0.3000E+01  0.3000E+01
    -18.187  0.0000E+00  0.0000E+00  0.3000E+01  0.3000E+01
    -17.911  0.0000E+00  0.0000E+00  0.3000E+01  0.3000E+01
    -17.636  0.0000E+00  0.0000E+00  0.3000E+01  0.3000E+01
    -17.360  0.0000E+00  0.0000E+00  0.3000E+01  0.3000E+01
    -17.085  0.0000E+00  0.0000E+00  0.3000E+01  0.3000E+01
    -16.809  0.0000E+00  0.0000E+00  0.3000E+01  0.3000E+01
    -16.534  0.0000E+00  0.0000E+00  0.3000E+01  0.3000E+01
    -16.258  0.0000E+00  0.0000E+00  0.3000E+01  0.3000E+01
    -15.983  0.0000E+00  0.0000E+00  0.3000E+01  0.3000E+01
    -15.707  0.0000E+00  0.0000E+00  0.3000E+01  0.3000E+01
    -15.432  0.0000E+00  0.0000E+00  0.3000E+01  0.3000E+01
    -15.156  0.0000E+00  0.0000E+00  0.3000E+01  0.3000E+01
    -14.881  0.0000E+00  0.0000E+00  0.3000E+01  0.3000E+01
    -14.605  0.0000E+00  0.0000E+00  0.3000E+01  0.3000E+01
    -14.330  0.0000E+00  0.0000E+00  0.3000E+01  0.3000E+01
    -14.054  0.0000E+00  0.0000E+00  0.3000E+01  0.3000E+01
    -13.779  0.0000E+00  0.0000E+00  0.3000E+01  0.3000E+01
    -13.503  0.0000E+00  0.0000E+00  0.3000E+01  0.3000E+01
    -13.228  0.0000E+00  0.0000E+00  0.3000E+01  0.3000E+01
    -12.952  0.0000E+00  0.0000E+00  0.3000E+01  0.3000E+01
    -12.677  0.0000E+00  0.0000E+00  0.3000E+01  0.3000E+01
    -12.401  0.0000E+00  0.0000E+00  0.3000E+01  0.3000E+01
    -12.126  0.0000E+00  0.0000E+00  0.3000E+01  0.3000E+01
    -11.850  0.0000E+00  0.0000E+00  0.3000E+01  0.3000E+01
    -11.575  0.0000E+00  0.0000E+00  0.3000E+01  0.3000E+01
    -11.299  0.0000E+00  0.0000E+00  0.3000E+01  0.3000E+01
    -11.024  0.0000E+00  0.0000E+00  0.3000E+01  0.3000E+01
    -10.748  0.0000E+00  0.0000E+00  0.3000E+01  0.3000E+01
    -10.473  0.0000E+00  0.0000E+00  0.3000E+01  0.3000E+01
    -10.197  0.0000E+00  0.0000E+00  0.3000E+01  0.3000E+01
     -9.922  0.0000E+00  0.0000E+00  0.3000E+01  0.3000E+01
     -9.646  0.0000E+00  0.0000E+00  0.3000E+01  0.3000E+01
     -9.371  0.0000E+00  0.0000E+00  0.3000E+01  0.3000E+01
     -9.095  0.0000E+00  0.0000E+00  0.3000E+01  0.3000E+01
     -8.820  0.0000E+00  0.0000E+00  0.3000E+01  0.3000E+01
     -8.544  0.0000E+00  0.0000E+00  0.3000E+01  0.3000E+01
     -8.269  0.0000E+00  0.0000E+00  0.3000E+01  0.3000E+01
     -7.993  0.0000E+00  0.0000E+00  0.3000E+01  0.3000E+01
     -7.718  0.0000E+00  0.0000E+00  0.3000E+01  0.3000E+01
     -7.442  0.0000E+00  0.0000E+00  0.3000E+01  0.3000E+01
     -7.167  0.0000E+00  0.0000E+00  0.3000E+01  0.3000E+01
     -6.891  0.0000E+00  0.0000E+00  0.3000E+01  0.3000E+01
     -6.616  0.0000E+00  0.0000E+00  0.3000E+01  0.3000E+01
     -6.340  0.0000E+00  0.0000E+00  0.3000E+01  0.3000E+01
     -6.065  0.0000E+00  0.0000E+00  0.3000E+01  0.3000E+01
     -5.789  0.0000E+00  0.0000E+00  0.3000E+01  0.3000E+01
     -5.514  0.0000E+00  0.0000E+00  0.3000E+01  0.3000E+01
     -5.238  0.0000E+00  0.0000E+00  0.3000E+01  0.3000E+01
     -4.963  0.0000E+00  0.0000E+00  0.3000E+01  0.3000E+01
     -4.687  0.0000E+00  0.0000E+00  0.3000E+01  0.3000E+01
     -4.412  0.0000E+00  0.0000E+00  0.3000E+01  0.3000E+01
     -4.136  0.0000E+00  0.0000E+00  0.3000E+01  0.3000E+01
     -3.861  0.0000E+00  0.0000E+00  0.3000E+01  0.3000E+01
     -3.585  0.0000E+00  0.0000E+00  0.3000E+01  0.3000E+01
     -3.310  0.0000E+00  0.0000E+00  0.3000E+01  0.3000E+01
     -3.034  0.0000E+00  0.0000E+00  0.3000E+01  0.3000E+01
     -2.759  0.0000E+00  0.0000E+00  0.3000E+01  0.3000E+01
     -2.483  0.3441E-01  0.3441E-01  0.3002E+01  0.3002E+01
     -2.208  0.1110E+00  0.1110E+00  0.3026E+01  0.3026E+01
     -1.932  0.1534E+00  0.1534E+00  0.3062E+01  0.3062E+01
     -1.657  0.1933E+00  0.1933E+00  0.3111E+01  0.3111E+01
     -1.381  0.2193E+00  0.2193E+00  0.3167E+01  0.3167E+01
     -1.106  0.2461E+00  0.2461E+00  0.3231E+01  0.3231E+01
     -0.830  0.2845E+00  0.2845E+00  0.3303E+01  0.3303E+01
     -0.555  0.3242E+00  0.3242E+00  0.3388E+01  0.3388E+01
     -0.279  0.3794E+00  0.3794E+00  0.3485E+01  0.3485E+01
     -0.004  0.4036E+00  0.4036E+00  0.3593E+01  0.3593E+01
      0.272  0.3654E+00  0.3654E+00  0.3702E+01  0.3702E+01
      0.547  0.3356E+00  0.3356E+00  0.3798E+01  0.3798E+01
      0.823  0.2592E+00  0.2592E+00  0.3880E+01  0.3880E+01
      1.098  0.3791E+00  0.3791E+00  0.3959E+01  0.3959E+01
      1.374  0.4835E+00  0.4835E+00  0.4098E+01  0.4098E+01
      1.649  0.4397E+00  0.4397E+00  0.4229E+01  0.4229E+01
      1.925  0.4505E+00  0.4505E+00  0.4352E+01  0.4352E+01
      2.200  0.3742E+00  0.3742E+00  0.4463E+01  0.4463E+01
      2.476  0.4040E+00  0.4040E+00  0.4568E+01  0.4568E+01
      2.751  0.6006E+00  0.6006E+00  0.4704E+01  0.4704E+01
      3.027  0.6679E+00  0.6679E+00  0.4886E+01  0.4886E+01
      3.302  0.5805E+00  0.5805E+00  0.5057E+01  0.5057E+01
      3.578  0.5624E+00  0.5624E+00  0.5212E+01  0.5212E+01
      3.853  0.6408E+00  0.6408E+00  0.5374E+01  0.5374E+01
      4.129  0.9160E+00  0.9160E+00  0.5576E+01  0.5576E+01
      4.404  0.7373E+00  0.7373E+00  0.5842E+01  0.5842E+01
      4.680  0.5877E+00  0.5877E+00  0.6017E+01  0.6017E+01
      4.955  0.7256E+00  0.7256E+00  0.6187E+01  0.6187E+01
      5.231  0.8407E+00  0.8407E+00  0.6401E+01  0.6401E+01
      5.506  0.1839E+01  0.1839E+01  0.6716E+01  0.6716E+01
      5.782  0.1571E+01  0.1571E+01  0.7131E+01  0.7131E+01
      6.057  0.2370E+01  0.2370E+01  0.7828E+01  0.7828E+01
      6.333  0.3185E+01  0.3185E+01  0.8570E+01  0.8570E+01
      6.608  0.2307E+01  0.2307E+01  0.9835E+01  0.9835E+01
      6.884  0.2726E+00  0.2726E+00  0.1001E+02  0.1001E+02
      7.159  0.1765E+01  0.1765E+01  0.1080E+02  0.1080E+02
      7.435  0.1032E+01  0.1032E+01  0.1122E+02  0.1122E+02
      7.710  0.8162E+00  0.8162E+00  0.1146E+02  0.1146E+02
      7.986  0.8682E+00  0.8682E+00  0.1171E+02  0.1171E+02
      8.261  0.1001E+01  0.1001E+01  0.1196E+02  0.1196E+02
      8.537  0.9593E+00  0.9593E+00  0.1221E+02  0.1221E+02
      8.812  0.8927E+00  0.8927E+00  0.1249E+02  0.1249E+02
      9.088  0.8627E+00  0.8627E+00  0.1272E+02  0.1272E+02
      9.363  0.9237E+00  0.9237E+00  0.1297E+02  0.1297E+02
      9.639  0.8352E+00  0.8352E+00  0.1321E+02  0.1321E+02
      9.914  0.8208E+00  0.8208E+00  0.1344E+02  0.1344E+02
     10.190  0.8719E+00  0.8719E+00  0.1367E+02  0.1367E+02
     10.465  0.9100E+00  0.9100E+00  0.1392E+02  0.1392E+02
     10.741  0.7318E+00  0.7318E+00  0.1416E+02  0.1416E+02
     11.016  0.7746E+00  0.7746E+00  0.1437E+02  0.1437E+02
     11.292  0.7994E+00  0.7994E+00  0.1458E+02  0.1458E+02
     11.567  0.8197E+00  0.8197E+00  0.1481E+02  0.1481E+02
     11.843  0.7748E+00  0.7748E+00  0.1503E+02  0.1503E+02
     12.118  0.9206E+00  0.9206E+00  0.1526E+02  0.1526E+02
     12.394  0.9019E+00  0.9019E+00  0.1552E+02  0.1552E+02
     12.669  0.7818E+00  0.7818E+00  0.1575E+02  0.1575E+02
     12.945  0.7754E+00  0.7754E+00  0.1597E+02  0.1597E+02
     13.220  0.6103E+00  0.6103E+00  0.1615E+02  0.1615E+02
     13.496  0.8808E+00  0.8808E+00  0.1632E+02  0.1632E+02
     13.771  0.9979E+00  0.9979E+00  0.1660E+02  0.1660E+02
     14.047  0.9814E+00  0.9814E+00  0.1687E+02  0.1687E+02
     14.322  0.8338E+00  0.8338E+00  0.1711E+02  0.1711E+02
     14.598  0.9101E+00  0.9101E+00  0.1735E+02  0.1735E+02
     14.873  0.8843E+00  0.8843E+00  0.1760E+02  0.1760E+02
     15.149  0.8366E+00  0.8366E+00  0.1783E+02  0.1783E+02
     15.424  0.1136E+01  0.1136E+01  0.1809E+02  0.1809E+02
     15.700  0.1148E+01  0.1148E+01  0.1844E+02  0.1844E+02
     15.975  0.1021E+01  0.1021E+01  0.1868E+02  0.1868E+02
     16.251  0.9416E+00  0.9416E+00  0.1896E+02  0.1896E+02
     16.526  0.8263E+00  0.8263E+00  0.1920E+02  0.1920E+02
     16.802  0.5574E+00  0.5574E+00  0.1938E+02  0.1938E+02
     17.077  0.4444E+00  0.4444E+00  0.1952E+02  0.1952E+02
     17.353  0.4342E+00  0.4342E+00  0.1965E+02  0.1965E+02
     17.628  0.2894E+00  0.2894E+00  0.1975E+02  0.1975E+02
     17.904  0.1973E+00  0.1973E+00  0.1981E+02  0.1981E+02
     18.179  0.1482E+00  0.1482E+00  0.1986E+02  0.1986E+02
     18.455  0.1240E+00  0.1240E+00  0.1989E+02  0.1989E+02
     18.730  0.1026E+00  0.1026E+00  0.1992E+02  0.1992E+02
     19.006  0.1136E+00  0.1136E+00  0.1995E+02  0.1995E+02
     19.281  0.7128E-01  0.7128E-01  0.1998E+02  0.1998E+02
     19.557  0.2842E-01  0.2842E-01  0.1999E+02  0.1999E+02
     19.832  0.1337E-01  0.1337E-01  0.2000E+02  0.2000E+02
     20.108  0.2758E-02  0.2758E-02  0.2000E+02  0.2000E+02
     20.383  0.0000E+00  0.0000E+00  0.2000E+02  0.2000E+02
     20.659  0.0000E+00  0.0000E+00  0.2000E+02  0.2000E+02
     20.934  0.0000E+00  0.0000E+00  0.2000E+02  0.2000E+02
     21.210  0.0000E+00  0.0000E+00  0.2000E+02  0.2000E+02
     21.485  0.0000E+00  0.0000E+00  0.2000E+02  0.2000E+02
     21.761  0.0000E+00  0.0000E+00  0.2000E+02  0.2000E+02
     22.036  0.0000E+00  0.0000E+00  0.2000E+02  0.2000E+02
     22.312  0.0000E+00  0.0000E+00  0.2000E+02  0.2000E+02
     22.587  0.0000E+00  0.0000E+00  0.2000E+02  0.2000E+02
     22.863  0.0000E+00  0.0000E+00  0.2000E+02  0.2000E+02
     23.138  0.0000E+00  0.0000E+00  0.2000E+02  0.2000E+02
     23.414  0.0000E+00  0.0000E+00  0.2000E+02  0.2000E+02
     23.689  0.0000E+00  0.0000E+00  0.2000E+02  0.2000E+02
     23.965  0.0000E+00  0.0000E+00  0.2000E+02  0.2000E+02
