       N       E                     dE             d eps       ncg     rms          rms(c)
DAV:   1    -0.178903645513E+02   -0.17890E+02   -0.30909E-01  3200   0.790E+00    0.769E-02
DAV:   2    -0.178906195631E+02   -0.25501E-03   -0.30423E-03  4384   0.600E-01    0.196E-01
DAV:   3    -0.178902453419E+02    0.37422E-03   -0.18286E-03  3552   0.523E-01    0.286E-02
DAV:   4    -0.178902252360E+02    0.20106E-04   -0.60520E-05  3528   0.542E-02    0.859E-03
DAV:   5    -0.178902297283E+02   -0.44924E-05   -0.34417E-06  3768   0.134E-02    0.342E-03
DAV:   6    -0.178902289474E+02    0.78093E-06   -0.38343E-07  3976   0.788E-03    0.541E-04
DAV:   7    -0.178902288628E+02    0.84549E-07   -0.15145E-08  2004   0.102E-03    0.732E-05
DAV:   8    -0.178902288640E+02   -0.11241E-08   -0.28241E-09  1732   0.608E-04
   1 F= -.17890229E+02 E0= -.17890229E+02  d E =0.000000E+00  mag=     0.0000
