 running on   24 total cores
 distrk:  each k-point on   24 cores,    1 groups
 distr:  one band on    6 cores,    4 groups
 using from now: INCAR     
 vasp.5.4.4.18Apr17-6-g9f103f2a35 (build Jan 03 2018 06:08:52) complex          
  
 POSCAR found :  2 types and       4 ions
 scaLAPACK will be used
 WARNING: for PREC=h ENMAX is automatically increase by 25 %
        this was not the case for versions prior to vasp.4.4
 WARNING: for PREC=h ENMAX is automatically increase by 25 %
        this was not the case for versions prior to vasp.4.4
 LDA part: xc-table for Pade appr. of Perdew
 POSCAR, INCAR and KPOINTS ok, starting setup
 FFT: planning ...
 WAVECAR not read
 entering main loop
       N       E                     dE             d eps       ncg     rms          rms(c)
DAV:   1     0.128855957453E+03    0.12886E+03   -0.13599E+04  3856   0.113E+03
DAV:   2    -0.140080449027E+02   -0.14286E+03   -0.13809E+03  3288   0.300E+02
DAV:   3    -0.181369611896E+02   -0.41289E+01   -0.40712E+01  3928   0.568E+01
DAV:   4    -0.182105156946E+02   -0.73555E-01   -0.73488E-01  3700   0.761E+00
DAV:   5    -0.182126509734E+02   -0.21353E-02   -0.21352E-02  3848   0.136E+00    0.202E+01
DAV:   6    -0.295557641052E+02   -0.11343E+02   -0.17597E+02  3540   0.166E+02    0.270E+01
DAV:   7    -0.167284945145E+02    0.12827E+02   -0.26741E+01  3580   0.977E+01    0.757E+00
DAV:   8    -0.161378096468E+02    0.59068E+00   -0.45149E+00  4540   0.289E+01    0.163E+00
DAV:   9    -0.161398152229E+02   -0.20056E-02   -0.47796E-01  4236   0.906E+00    0.158E+00
DAV:  10    -0.161119139634E+02    0.27901E-01   -0.14302E-01  3852   0.538E+00    0.281E-01
DAV:  11    -0.161133575143E+02   -0.14436E-02   -0.58818E-03  3680   0.552E-01    0.352E-01
DAV:  12    -0.161121939029E+02    0.11636E-02   -0.22630E-03  4608   0.586E-01    0.138E-01
DAV:  13    -0.161119951686E+02    0.19873E-03   -0.11337E-03  4884   0.406E-01    0.173E-02
DAV:  14    -0.161119983567E+02   -0.31880E-05   -0.30555E-05  3492   0.405E-02    0.135E-02
DAV:  15    -0.161119968891E+02    0.14676E-05   -0.14590E-06  4712   0.119E-02    0.850E-03
DAV:  16    -0.161119960415E+02    0.84758E-06   -0.73284E-07  4868   0.948E-03    0.463E-03
DAV:  17    -0.161119957408E+02    0.30065E-06   -0.45076E-07  4832   0.810E-03    0.159E-03
DAV:  18    -0.161119956835E+02    0.57336E-07   -0.11477E-07  3924   0.409E-03    0.100E-04
DAV:  19    -0.161119956796E+02    0.38881E-08   -0.55855E-09  1924   0.643E-04
   1 F= -.16111996E+02 E0= -.16111934E+02  d E =-.161120E+02  mag=    -0.0000
 curvature:   0.00 expect dE= 0.000E+00 dE for cont linesearch  0.000E+00
 trial: gam= 0.00000 g(F)=  0.271E-45 g(S)=  0.737E+01 ort = 0.000E+00 (trialstep = 0.100E+01)
 search vector abs. value=  0.737E+01
 bond charge predicted
       N       E                     dE             d eps       ncg     rms          rms(c)
DAV:   1    -0.129318004993E+03   -0.11321E+03   -0.21317E+03  3224   0.760E+02    0.732E+01
DAV:   2    -0.249222048050E+02    0.10440E+03   -0.46591E+02  3420   0.199E+02    0.152E+01
DAV:   3    -0.306228478107E+02   -0.57006E+01   -0.17906E+02  3488   0.112E+02    0.289E+01
DAV:   4    -0.189236510507E+02    0.11699E+02   -0.49532E+01  3804   0.957E+01    0.150E+01
DAV:   5    -0.183115247700E+02    0.61213E+00   -0.43185E+01  3608   0.515E+01    0.107E+01
DAV:   6    -0.175986886443E+02    0.71284E+00   -0.80936E-01  3600   0.918E+00    0.896E+00
DAV:   7    -0.168410562718E+02    0.75763E+00   -0.14941E+00  3748   0.143E+01    0.315E+00
DAV:   8    -0.167707853870E+02    0.70271E-01   -0.27492E-01  4692   0.391E+00    0.874E-01
DAV:   9    -0.167676990915E+02    0.30863E-02   -0.10247E-02  3848   0.832E-01    0.467E-01
DAV:  10    -0.167659618956E+02    0.17372E-02   -0.88492E-03  4460   0.758E-01    0.205E-02
DAV:  11    -0.167660072861E+02   -0.45391E-04   -0.22123E-04  3448   0.101E-01    0.367E-02
DAV:  12    -0.167660160077E+02   -0.87216E-05   -0.30435E-04  3888   0.143E-01    0.496E-02
DAV:  13    -0.167659986673E+02    0.17340E-04   -0.48264E-05  3716   0.584E-02    0.169E-02
DAV:  14    -0.167659968316E+02    0.18357E-05   -0.67683E-06  4752   0.205E-02    0.465E-03
DAV:  15    -0.167659966909E+02    0.14065E-06   -0.42483E-07  4676   0.469E-03    0.183E-03
DAV:  16    -0.167659966492E+02    0.41735E-07   -0.18379E-07  3504   0.366E-03    0.333E-04
DAV:  17    -0.167659966401E+02    0.91027E-08   -0.54422E-09  1796   0.611E-04
   2 F= -.16765997E+02 E0= -.16765359E+02  d E =-.654001E+00  mag=     0.0000
 trial-energy change:   -0.654001  1 .order   -1.106504   -7.373728    5.160719
 step:   0.5344(harm=  0.5883)  dis= 0.00000  next Energy=   -18.013137 (dE=-0.190E+01)
 bond charge predicted
       N       E                     dE             d eps       ncg     rms          rms(c)
DAV:   1    -0.872554897212E+02   -0.70489E+02   -0.68318E+02  3876   0.293E+02    0.829E+01
DAV:   2    -0.149459358067E+03   -0.62204E+02   -0.15443E+03  4832   0.368E+02    0.719E+01
DAV:   3    -0.372745176710E+02    0.11218E+03   -0.58895E+02  3920   0.186E+02    0.255E+01
DAV:   4    -0.340678460129E+02    0.32067E+01   -0.17786E+01  3768   0.337E+01    0.225E+01
DAV:   5    -0.302486506031E+02    0.38192E+01   -0.10843E+00  3628   0.103E+01    0.206E+01
DAV:   6    -0.201637868180E+02    0.10085E+02   -0.48601E+01  3792   0.980E+01    0.201E+01
DAV:   7    -0.196542627028E+02    0.50952E+00   -0.30436E+00  3784   0.103E+01    0.167E+01
DAV:   8    -0.181565329023E+02    0.14977E+01   -0.38245E+00  4192   0.143E+01    0.632E+00
DAV:   9    -0.184204365990E+02   -0.26390E+00   -0.34628E-01  3776   0.617E+00    0.897E+00
DAV:  10    -0.178540418584E+02    0.56639E+00   -0.23296E+00  3940   0.121E+01    0.152E+00
DAV:  11    -0.181314978894E+02   -0.27746E+00   -0.22805E+00  4540   0.144E+01    0.539E+00
DAV:  12    -0.180059656152E+02    0.12553E+00   -0.12593E-01  3748   0.423E+00    0.413E+00
DAV:  13    -0.179730347141E+02    0.32931E-01   -0.12526E-02  4648   0.122E+00    0.368E+00
DAV:  14    -0.178842583029E+02    0.88776E-01   -0.10664E-01  3700   0.389E+00    0.215E+00
DAV:  15    -0.178518109450E+02    0.32447E-01   -0.47185E-02  4892   0.208E+00    0.117E+00
DAV:  16    -0.178489742182E+02    0.28367E-02   -0.15503E-03  4628   0.277E-01    0.106E+00
DAV:  17    -0.178389615796E+02    0.10013E-01   -0.25310E-02  4132   0.160E+00    0.307E-01
DAV:  18    -0.178384713118E+02    0.49027E-03   -0.16631E-03  4712   0.307E-01    0.163E-01
DAV:  19    -0.178383926448E+02    0.78667E-04   -0.56125E-05  4792   0.746E-02    0.132E-01
DAV:  20    -0.178382598572E+02    0.13279E-03   -0.24397E-04  4524   0.152E-01    0.582E-02
DAV:  21    -0.178382315364E+02    0.28321E-04   -0.75369E-05  4896   0.787E-02    0.187E-02
DAV:  22    -0.178382275758E+02    0.39606E-05   -0.14770E-05  4648   0.361E-02    0.102E-03
DAV:  23    -0.178382274829E+02    0.92886E-07   -0.33491E-07  3516   0.404E-03    0.326E-04
DAV:  24    -0.178382274677E+02    0.15195E-07   -0.73655E-09  1840   0.111E-03    0.516E-04
DAV:  25    -0.178382274483E+02    0.19392E-07   -0.13896E-08  1736   0.133E-03    0.789E-05
DAV:  26    -0.178382274511E+02   -0.27740E-08   -0.14111E-09  1668   0.265E-04
   3 F= -.17838227E+02 E0= -.17837887E+02  d E =-.172623E+01  mag=    -0.0000
 curvature:  -0.29 expect dE=-0.111E-02 dE for cont linesearch -0.591E-03
 ZBRENT: interpolating
 opt :   0.5256  next Energy=   -17.838765 (dE=-0.173E+01)
 bond charge predicted
       N       E                     dE             d eps       ncg     rms          rms(c)
DAV:   1    -0.178625616066E+02   -0.24334E-01   -0.22527E-01  3488   0.630E+00    0.180E+00
DAV:   2    -0.180107957168E+02   -0.14823E+00   -0.16942E+00  3584   0.146E+01    0.417E+00
DAV:   3    -0.178381637115E+02    0.17263E+00   -0.77646E-01  3552   0.113E+01    0.128E-01
DAV:   4    -0.178391651536E+02   -0.10014E-02   -0.15396E-02  3416   0.734E-01    0.214E-01
DAV:   5    -0.178388244858E+02    0.34067E-03   -0.18862E-03  3840   0.469E-01    0.151E-02
DAV:   6    -0.178388232296E+02    0.12562E-05   -0.30862E-05  3552   0.460E-02    0.234E-03
DAV:   7    -0.178388229852E+02    0.24447E-06   -0.92605E-07  3564   0.675E-03    0.113E-03
DAV:   8    -0.178388228988E+02    0.86370E-07   -0.29184E-07  4872   0.501E-03    0.112E-03
DAV:   9    -0.178388228166E+02    0.82183E-07   -0.40030E-08  1964   0.199E-03    0.178E-04
DAV:  10    -0.178388227972E+02    0.19445E-07   -0.59139E-09  1812   0.440E-04    0.302E-05
DAV:  11    -0.178388228003E+02   -0.31055E-08   -0.54784E-10  1688   0.214E-04
   4 F= -.17838823E+02 E0= -.17838506E+02  d E =-.172683E+01  mag=    -0.0000
 curvature:  -0.26 expect dE=-0.490E-03 dE for cont linesearch -0.203E-04
 ZBRENT: interpolating
 opt :   0.5235  next Energy=   -17.838848 (dE=-0.173E+01)
 bond charge predicted
       N       E                     dE             d eps       ncg     rms          rms(c)
DAV:   1    -0.178402046315E+02   -0.13818E-02   -0.12965E-02  3488   0.152E+00    0.425E-01
DAV:   2    -0.178485045849E+02   -0.83000E-02   -0.93343E-02  3592   0.345E+00    0.102E+00
DAV:   3    -0.178388196382E+02    0.96849E-02   -0.49219E-02  3544   0.262E+00    0.354E-02
DAV:   4    -0.178388566485E+02   -0.37010E-04   -0.60805E-04  3280   0.130E-01    0.352E-02
DAV:   5    -0.178388479571E+02    0.86914E-05   -0.45635E-05  3900   0.746E-02    0.308E-03
DAV:   6    -0.178388478672E+02    0.89914E-07   -0.10075E-06  3468   0.101E-02    0.791E-04
DAV:   7    -0.178388478357E+02    0.31536E-07   -0.64638E-08  3296   0.220E-03    0.217E-04
DAV:   8    -0.178388478141E+02    0.21598E-07   -0.52098E-09  1736   0.603E-04    0.167E-04
DAV:   9    -0.178388478033E+02    0.10728E-07   -0.15448E-09  1672   0.309E-04    0.562E-05
DAV:  10    -0.178388478004E+02    0.29559E-08   -0.36976E-10  1656   0.168E-04
   5 F= -.17838848E+02 E0= -.17838536E+02  d E =-.172685E+01  mag=     0.0000
 curvature:  -0.33 expect dE=-0.582E-03 dE for cont linesearch -0.164E-09
 trial: gam= 0.00025 g(F)=  0.326E-45 g(S)=  0.178E-02 ort =-0.608E-04 (trialstep = 0.905E+00)
 search vector abs. value=  0.178E-02
 bond charge predicted
       N       E                     dE             d eps       ncg     rms          rms(c)
DAV:   1    -0.178442198428E+02   -0.53720E-02   -0.12357E-01  3528   0.305E+00    0.505E-01
DAV:   2    -0.178411286271E+02    0.30912E-02   -0.44242E-03  3632   0.807E-01    0.262E-01
DAV:   3    -0.178410912153E+02    0.37412E-04   -0.86271E-03  3840   0.104E+00    0.341E-01
DAV:   4    -0.178400860581E+02    0.10052E-02   -0.52434E-03  3536   0.817E-01    0.194E-02
DAV:   5    -0.178400851052E+02    0.95290E-06   -0.11204E-04  3472   0.821E-02    0.112E-02
DAV:   6    -0.178400845558E+02    0.54943E-06   -0.87415E-06  3920   0.292E-02    0.365E-03
DAV:   7    -0.178400846174E+02   -0.61663E-07   -0.77738E-07  3728   0.100E-02    0.126E-03
DAV:   8    -0.178400846008E+02    0.16588E-07   -0.80334E-08  2992   0.322E-03    0.173E-04
DAV:   9    -0.178400846062E+02   -0.53151E-08   -0.40228E-09  1744   0.800E-04
   6 F= -.17840085E+02 E0= -.17839844E+02  d E =-.123681E-02  mag=     0.0000
 trial-energy change:   -0.001237  1 .order   -0.001230   -0.001614   -0.000846
 step:   1.8049(harm=  1.9015)  dis= 0.00000  next Energy=   -17.840512 (dE=-0.166E-02)
 bond charge predicted
       N       E                     dE             d eps       ncg     rms          rms(c)
DAV:   1    -0.178446080885E+02   -0.45235E-02   -0.12204E-01  3552   0.303E+00    0.503E-01
DAV:   2    -0.178415573301E+02    0.30508E-02   -0.46203E-03  3576   0.824E-01    0.267E-01
DAV:   3    -0.178417700990E+02   -0.21277E-03   -0.10554E-02  3736   0.115E+00    0.383E-01
DAV:   4    -0.178404864284E+02    0.12837E-02   -0.65956E-03  3528   0.913E-01    0.190E-02
DAV:   5    -0.178404881213E+02   -0.16930E-05   -0.13678E-04  3424   0.877E-02    0.113E-02
DAV:   6    -0.178404875469E+02    0.57443E-06   -0.93316E-06  3944   0.302E-02    0.373E-03
DAV:   7    -0.178404876163E+02   -0.69435E-07   -0.81898E-07  3808   0.100E-02    0.136E-03
DAV:   8    -0.178404875965E+02    0.19882E-07   -0.86528E-08  3188   0.331E-03    0.178E-04
DAV:   9    -0.178404876029E+02   -0.64715E-08   -0.45279E-09  1704   0.877E-04
   7 F= -.17840488E+02 E0= -.17840399E+02  d E =-.163980E-02  mag=     0.0000
 curvature:  -0.94 expect dE=-0.614E-05 dE for cont linesearch -0.302E-05
 trial: gam= 0.00000 g(F)=  0.607E-45 g(S)=  0.651E-05 ort =-0.756E-04 (trialstep = 0.108E+01)
 search vector abs. value=  0.651E-05
 bond charge predicted
       N       E                     dE             d eps       ncg     rms          rms(c)
DAV:   1    -0.178406900043E+02   -0.20241E-03   -0.21083E-03  3616   0.590E-01    0.160E-01
DAV:   2    -0.178418235897E+02   -0.11336E-02   -0.12904E-02  3600   0.129E+00    0.382E-01
DAV:   3    -0.178404889302E+02    0.13347E-02   -0.69961E-03  3552   0.970E-01    0.184E-02
DAV:   4    -0.178404915592E+02   -0.26290E-05   -0.85934E-05  3296   0.526E-02    0.124E-02
DAV:   5    -0.178404905082E+02    0.10510E-05   -0.57845E-06  3936   0.265E-02    0.152E-03
DAV:   6    -0.178404905162E+02   -0.79767E-08   -0.15156E-07  3416   0.351E-03    0.364E-04
DAV:   7    -0.178404905068E+02    0.94096E-08   -0.85171E-09  1912   0.825E-04
   8 F= -.17840491E+02 E0= -.17840395E+02  d E =-.290383E-05  mag=     0.0000
 trial-energy change:   -0.000003  1 .order   -0.000002   -0.000007    0.000003
 step:   0.8566(harm=  0.7653)  dis= 0.00000  next Energy=   -17.840491 (dE=-0.321E-05)
 bond charge predicted
       N       E                     dE             d eps       ncg     rms          rms(c)
DAV:   1    -0.178404996646E+02   -0.91484E-05   -0.92855E-05  3624   0.124E-01    0.336E-02
DAV:   2    -0.178405492367E+02   -0.49572E-04   -0.56967E-04  3600   0.271E-01    0.807E-02
DAV:   3    -0.178404905346E+02    0.58702E-04   -0.31510E-04  3560   0.204E-01    0.398E-03
DAV:   4    -0.178404907120E+02   -0.17732E-06   -0.37041E-06  3296   0.111E-02    0.246E-03
DAV:   5    -0.178404906644E+02    0.47592E-07   -0.22516E-07  3888   0.524E-03    0.316E-04
DAV:   6    -0.178404906568E+02    0.75515E-08   -0.57765E-09  1768   0.748E-04
   9 F= -.17840491E+02 E0= -.17840396E+02  d E =-.305388E-05  mag=    -0.0000
 curvature:  -0.35 expect dE=-0.572E-06 dE for cont linesearch -0.308E-07
 trial: gam= 0.36578 g(F)=  0.687E-45 g(S)=  0.163E-05 ort =-0.756E-06 (trialstep = 0.104E+01)
 search vector abs. value=  0.195E-05
 reached required accuracy - stopping structural energy minimisation
 writing wavefunctions
