       N       E                     dE             d eps       ncg     rms          rms(c)
DAV:   1     0.111800965334E+04    0.11180E+04   -0.51588E+04  5200   0.177E+03
DAV:   2     0.323020959829E+02   -0.10857E+04   -0.10401E+04  4352   0.571E+02
DAV:   3    -0.473500661734E+02   -0.79652E+02   -0.74309E+02  4884   0.173E+02
DAV:   4    -0.500453436754E+02   -0.26953E+01   -0.26780E+01  4788   0.306E+01
DAV:   5    -0.501116224443E+02   -0.66279E-01   -0.66267E-01  4864   0.465E+00    0.288E+01
DAV:   6    -0.588426226440E+02   -0.87310E+01   -0.11679E+02  4860   0.111E+02    0.342E+01
DAV:   7    -0.437145030682E+02    0.15128E+02   -0.45764E+01  4788   0.703E+01    0.280E+00
DAV:   8    -0.439428346447E+02   -0.22833E+00   -0.23975E+00  5328   0.175E+01    0.548E+00
DAV:   9    -0.437255009966E+02    0.21733E+00   -0.52152E-01  5028   0.120E+01    0.153E+00
DAV:  10    -0.436982605833E+02    0.27240E-01   -0.12454E-01  4912   0.264E+00    0.519E-01
DAV:  11    -0.436971414808E+02    0.11191E-02   -0.89057E-03  4672   0.905E-01    0.157E-01
DAV:  12    -0.436970713307E+02    0.70150E-04   -0.88035E-04  5704   0.282E-01    0.824E-02
DAV:  13    -0.436970678486E+02    0.34821E-05   -0.23055E-04  5124   0.126E-01    0.453E-02
DAV:  14    -0.436970794497E+02   -0.11601E-04   -0.35363E-05  5284   0.589E-02    0.306E-02
DAV:  15    -0.436970939652E+02   -0.14515E-04   -0.31159E-05  5456   0.503E-02    0.249E-02
DAV:  16    -0.436971059151E+02   -0.11950E-04   -0.33297E-05  5740   0.507E-02    0.158E-02
DAV:  17    -0.436971148320E+02   -0.89168E-05   -0.21051E-05  5700   0.372E-02    0.122E-02
DAV:  18    -0.436971195881E+02   -0.47562E-05   -0.27768E-05  5484   0.476E-02    0.641E-03
DAV:  19    -0.436971241046E+02   -0.45165E-05   -0.37187E-06  4512   0.163E-02    0.757E-03
DAV:  20    -0.436971251871E+02   -0.10824E-05   -0.62939E-06  5424   0.242E-02    0.305E-03
DAV:  21    -0.436971261742E+02   -0.98718E-06   -0.92976E-07  4800   0.720E-03    0.375E-03
DAV:  22    -0.436971262968E+02   -0.12260E-06   -0.44021E-06  5328   0.203E-02    0.222E-03
DAV:  23    -0.436971268544E+02   -0.55756E-06   -0.46508E-07  4424   0.769E-03    0.222E-03
DAV:  24    -0.436971268903E+02   -0.35900E-07   -0.10071E-06  4964   0.103E-02    0.985E-04
DAV:  25    -0.436971270309E+02   -0.14057E-06   -0.11433E-07  4160   0.279E-03    0.666E-04
DAV:  26    -0.436971270441E+02   -0.13250E-07   -0.98158E-08  3588   0.297E-03    0.318E-04
DAV:  27    -0.436971270645E+02   -0.20380E-07   -0.12684E-08  2496   0.913E-04    0.291E-04
DAV:  28    -0.436971270665E+02   -0.20009E-08   -0.16864E-08  2308   0.123E-03
   1 F= -.43697127E+02 E0= -.43696210E+02  d E =-.436971E+02  mag=     0.0003
       N       E                     dE             d eps       ncg     rms          rms(c)
DAV:   1    -0.129399410006E+03   -0.85702E+02   -0.89216E+02  4416   0.322E+02    0.772E+01
DAV:   2    -0.101968048869E+03    0.27431E+02   -0.72628E+02  4840   0.228E+02    0.644E+01
DAV:   3    -0.498669175601E+02    0.52101E+02   -0.23063E+02  4912   0.142E+02    0.248E+01
DAV:   4    -0.473132224940E+02    0.25537E+01   -0.24616E+01  5032   0.613E+01    0.251E+01
DAV:   5    -0.446388239455E+02    0.26744E+01   -0.25396E+01  4960   0.360E+01    0.653E+00
DAV:   6    -0.440718907587E+02    0.56693E+00   -0.14694E+00  4736   0.131E+01    0.326E+00
DAV:   7    -0.439514315405E+02    0.12046E+00   -0.32717E-01  5432   0.535E+00    0.990E-01
DAV:   8    -0.439474727115E+02    0.39588E-02   -0.82488E-02  4576   0.250E+00    0.359E-01
DAV:   9    -0.439473985406E+02    0.74171E-04   -0.75889E-03  5344   0.102E+00    0.323E-01
DAV:  10    -0.439469616695E+02    0.43687E-03   -0.15608E-03  5488   0.467E-01    0.567E-02
DAV:  11    -0.439469441134E+02    0.17556E-04   -0.14030E-04  4576   0.927E-02    0.343E-02
DAV:  12    -0.439469386534E+02    0.54599E-05   -0.41515E-05  5008   0.557E-02    0.160E-02
DAV:  13    -0.439469372515E+02    0.14020E-05   -0.69680E-06  4580   0.248E-02    0.260E-03
DAV:  14    -0.439469375604E+02   -0.30895E-06   -0.46167E-07  6184   0.638E-03    0.194E-03
DAV:  15    -0.439469375134E+02    0.46981E-07   -0.85534E-08  4260   0.328E-03    0.493E-04
DAV:  16    -0.439469374744E+02    0.39061E-07   -0.86598E-09  2416   0.717E-04    0.304E-04
DAV:  17    -0.439469374768E+02   -0.24411E-08   -0.18367E-09  2304   0.335E-04
   2 F= -.43946937E+02 E0= -.43945019E+02  d E =-.249810E+00  mag=     0.0003
       N       E                     dE             d eps       ncg     rms          rms(c)
DAV:   1    -0.614300636516E+02   -0.17483E+02   -0.15881E+02  4472   0.114E+02    0.423E+01
DAV:   2    -0.778439125025E+02   -0.16414E+02   -0.26183E+02  4768   0.165E+02    0.452E+01
DAV:   3    -0.444074847837E+02    0.33436E+02   -0.89606E+01  4768   0.965E+01    0.470E+00
DAV:   4    -0.443792868930E+02    0.28198E-01   -0.42813E+00  5144   0.147E+01    0.656E+00
DAV:   5    -0.443181491353E+02    0.61138E-01   -0.16617E+00  4856   0.139E+01    0.499E+00
DAV:   6    -0.441247464835E+02    0.19340E+00   -0.39891E-01  5104   0.798E+00    0.672E-01
DAV:   7    -0.441229913054E+02    0.17552E-02   -0.36763E-02  5360   0.156E+00    0.310E-01
DAV:   8    -0.441230263184E+02   -0.35013E-04   -0.51800E-03  4568   0.508E-01    0.338E-01
DAV:   9    -0.441222645151E+02    0.76180E-03   -0.39534E-03  4812   0.611E-01    0.917E-02
DAV:  10    -0.441222077448E+02    0.56770E-04   -0.48528E-04  4728   0.213E-01    0.506E-02
DAV:  11    -0.441221888038E+02    0.18941E-04   -0.50583E-05  5004   0.780E-02    0.536E-03
DAV:  12    -0.441221882302E+02    0.57368E-06   -0.59461E-06  4664   0.142E-02    0.456E-03
DAV:  13    -0.441221878625E+02    0.36769E-06   -0.14785E-06  4792   0.118E-02    0.232E-03
DAV:  14    -0.441221878476E+02    0.14865E-07   -0.18533E-07  4612   0.453E-03    0.464E-04
DAV:  15    -0.441221878121E+02    0.35561E-07   -0.61670E-09  2356   0.636E-04    0.401E-04
DAV:  16    -0.441221878143E+02   -0.22010E-08   -0.68127E-09  2300   0.755E-04
   3 F= -.44122188E+02 E0= -.44121060E+02  d E =-.425061E+00  mag=     0.0001
       N       E                     dE             d eps       ncg     rms          rms(c)
DAV:   1    -0.451224277123E+02   -0.10002E+01   -0.21828E+01  4616   0.293E+01    0.849E+00
DAV:   2    -0.449868925960E+02    0.13554E+00   -0.49278E+00  4848   0.219E+01    0.788E+00
DAV:   3    -0.443402228189E+02    0.64667E+00   -0.22864E+00  4820   0.163E+01    0.330E+00
DAV:   4    -0.446290371972E+02   -0.28881E+00   -0.14130E+00  4952   0.186E+01    0.964E+00
DAV:   5    -0.442135036451E+02    0.41553E+00   -0.18541E+00  4900   0.102E+01    0.571E-01
DAV:   6    -0.442121384299E+02    0.13652E-02   -0.52648E-02  4532   0.152E+00    0.194E-01
DAV:   7    -0.442119707444E+02    0.16769E-03   -0.19412E-03  5608   0.405E-01    0.927E-02
DAV:   8    -0.442120078864E+02   -0.37142E-04   -0.24672E-04  5308   0.131E-01    0.248E-02
DAV:   9    -0.442120068188E+02    0.10676E-05   -0.42764E-05  4732   0.768E-02    0.110E-02
DAV:  10    -0.442120059500E+02    0.86873E-06   -0.30161E-06  5092   0.178E-02    0.288E-03
DAV:  11    -0.442120058802E+02    0.69798E-07   -0.31992E-07  4920   0.498E-03    0.813E-04
DAV:  12    -0.442120058673E+02    0.12973E-07   -0.24128E-08  3388   0.111E-03    0.280E-04
DAV:  13    -0.442120058669E+02    0.33106E-09   -0.27049E-09  2296   0.530E-04
   4 F= -.44212006E+02 E0= -.44209969E+02  d E =-.898181E-01  mag=     0.0004
       N       E                     dE             d eps       ncg     rms          rms(c)
DAV:   1    -0.531013140135E+02   -0.88893E+01   -0.20900E+02  4672   0.899E+01    0.269E+01
DAV:   2    -0.513504654113E+02    0.17508E+01   -0.49310E+01  4776   0.659E+01    0.227E+01
DAV:   3    -0.453869842227E+02    0.59635E+01   -0.23076E+01  4816   0.480E+01    0.921E+00
DAV:   4    -0.454765765328E+02   -0.89592E-01   -0.57497E+00  5736   0.266E+01    0.163E+01
DAV:   5    -0.443430560160E+02    0.11335E+01   -0.59867E+00  4968   0.153E+01    0.146E+00
DAV:   6    -0.443351369830E+02    0.79190E-02   -0.23650E-01  4664   0.386E+00    0.514E-01
DAV:   7    -0.443336924385E+02    0.14445E-02   -0.90419E-03  4840   0.935E-01    0.153E-01
DAV:   8    -0.443340246200E+02   -0.33218E-03   -0.10298E-03  5376   0.243E-01    0.547E-02
DAV:   9    -0.443339954618E+02    0.29158E-04   -0.13372E-04  4872   0.115E-01    0.124E-02
DAV:  10    -0.443339943244E+02    0.11374E-05   -0.94071E-06  5304   0.286E-02    0.392E-03
DAV:  11    -0.443339941619E+02    0.16259E-06   -0.68675E-07  4936   0.800E-03    0.915E-04
DAV:  12    -0.443339941477E+02    0.14177E-07   -0.69130E-08  4452   0.209E-03    0.389E-04
DAV:  13    -0.443339941504E+02   -0.27285E-08   -0.46670E-09  2476   0.686E-04
   5 F= -.44333994E+02 E0= -.44332378E+02  d E =-.211806E+00  mag=     0.0002
       N       E                     dE             d eps       ncg     rms          rms(c)
DAV:   1    -0.449270222828E+02   -0.59303E+00   -0.13148E+01  4712   0.237E+01    0.691E+00
DAV:   2    -0.448511822227E+02    0.75840E-01   -0.36061E+00  4808   0.193E+01    0.631E+00
DAV:   3    -0.444341914186E+02    0.41699E+00   -0.15744E+00  4792   0.146E+01    0.352E+00
DAV:   4    -0.445274050411E+02   -0.93214E-01   -0.10372E+00  4824   0.143E+01    0.584E+00
DAV:   5    -0.443368942631E+02    0.19051E+00   -0.72750E-01  5344   0.696E+00    0.415E-01
DAV:   6    -0.443367468611E+02    0.14740E-03   -0.26531E-02  4560   0.117E+00    0.196E-01
DAV:   7    -0.443365295937E+02    0.21727E-03   -0.11057E-03  5744   0.391E-01    0.738E-02
DAV:   8    -0.443365402195E+02   -0.10626E-04   -0.19787E-04  4640   0.930E-02    0.141E-02
DAV:   9    -0.443365399709E+02    0.24860E-06   -0.14835E-05  5468   0.358E-02    0.668E-03
DAV:  10    -0.443365397658E+02    0.20503E-06   -0.93058E-07  4808   0.113E-02    0.146E-03
DAV:  11    -0.443365397236E+02    0.42222E-07   -0.12268E-07  4880   0.426E-03    0.443E-04
DAV:  12    -0.443365396693E+02    0.54351E-07   -0.12234E-08  2512   0.125E-03    0.907E-05
DAV:  13    -0.443365396689E+02    0.39290E-09   -0.25673E-09  2380   0.428E-04
   6 F= -.44336540E+02 E0= -.44335914E+02  d E =-.214352E+00  mag=     0.0000
       N       E                     dE             d eps       ncg     rms          rms(c)
DAV:   1    -0.540900158901E+02   -0.97535E+01   -0.10966E+02  4680   0.967E+01    0.302E+01
DAV:   2    -0.608980643510E+02   -0.68080E+01   -0.19487E+02  4872   0.112E+02    0.384E+01
DAV:   3    -0.483017487488E+02    0.12596E+02   -0.90903E+01  4816   0.713E+01    0.200E+01
DAV:   4    -0.445930960006E+02    0.37087E+01   -0.11808E+01  4704   0.425E+01    0.560E+00
DAV:   5    -0.443314227605E+02    0.26167E+00   -0.18001E+00  5128   0.121E+01    0.312E+00
DAV:   6    -0.443255283878E+02    0.58944E-02   -0.77209E-01  4672   0.809E+00    0.248E+00
DAV:   7    -0.442849242739E+02    0.40604E-01   -0.13496E-01  4808   0.502E+00    0.229E-01
DAV:   8    -0.442863970471E+02   -0.14728E-02   -0.13611E-02  5456   0.862E-01    0.483E-01
DAV:   9    -0.442852062193E+02    0.11908E-02   -0.48587E-03  4680   0.712E-01    0.682E-02
DAV:  10    -0.442851970312E+02    0.91881E-05   -0.23393E-04  4608   0.888E-02    0.330E-02
DAV:  11    -0.442851924656E+02    0.45656E-05   -0.38492E-05  6592   0.462E-02    0.980E-03
DAV:  12    -0.442851929976E+02   -0.53196E-06   -0.58116E-06  4484   0.159E-02    0.126E-02
DAV:  13    -0.442851919731E+02    0.10245E-05   -0.17300E-06  5532   0.131E-02    0.402E-03
DAV:  14    -0.442851919785E+02   -0.54570E-08   -0.51929E-07  5452   0.550E-03    0.443E-04
DAV:  15    -0.442851920131E+02   -0.34564E-07   -0.53574E-08  3576   0.219E-03    0.649E-04
DAV:  16    -0.442851920052E+02    0.79199E-08   -0.95095E-09  2336   0.102E-03
   7 F= -.44285192E+02 E0= -.44285743E+02  d E =0.513477E-01  mag=    -0.0000
       N       E                     dE             d eps       ncg     rms          rms(c)
DAV:   1    -0.486829581133E+02   -0.43978E+01   -0.48819E+01  4800   0.607E+01    0.206E+01
DAV:   2    -0.518573566159E+02   -0.31744E+01   -0.56717E+01  4784   0.767E+01    0.236E+01
DAV:   3    -0.445950692485E+02    0.72623E+01   -0.22472E+01  4760   0.520E+01    0.672E+00
DAV:   4    -0.446133806453E+02   -0.18311E-01   -0.35681E+00  4864   0.169E+01    0.554E+00
DAV:   5    -0.443571766650E+02    0.25620E+00   -0.57408E-01  5592   0.912E+00    0.105E+00
DAV:   6    -0.443509518499E+02    0.62248E-02   -0.76932E-02  4736   0.217E+00    0.227E-01
DAV:   7    -0.443508107151E+02    0.14113E-03   -0.24705E-03  4888   0.424E-01    0.821E-02
DAV:   8    -0.443507955788E+02    0.15136E-04   -0.30350E-04  4928   0.147E-01    0.179E-02
DAV:   9    -0.443507890825E+02    0.64964E-05   -0.19867E-05  4896   0.328E-02    0.623E-03
DAV:  10    -0.443507886684E+02    0.41408E-06   -0.24197E-06  4856   0.150E-02    0.155E-03
DAV:  11    -0.443507886312E+02    0.37151E-07   -0.12288E-07  5064   0.324E-03    0.577E-04
DAV:  12    -0.443507885981E+02    0.33171E-07   -0.13624E-08  2524   0.124E-03    0.107E-04
DAV:  13    -0.443507886054E+02   -0.73851E-08   -0.25079E-09  2320   0.412E-04
   8 F= -.44350789E+02 E0= -.44350766E+02  d E =-.142489E-01  mag=     0.0000
       N       E                     dE             d eps       ncg     rms          rms(c)
DAV:   1    -0.443672403464E+02   -0.16452E-01   -0.35256E-01  4696   0.392E+00    0.112E+00
DAV:   2    -0.443654155352E+02    0.18248E-02   -0.97542E-02  4832   0.321E+00    0.103E+00
DAV:   3    -0.443532601350E+02    0.12155E-01   -0.38351E-02  4808   0.207E+00    0.395E-01
DAV:   4    -0.443565941834E+02   -0.33340E-02   -0.21979E-02  5096   0.172E+00    0.970E-01
DAV:   5    -0.443513260819E+02    0.52681E-02   -0.15054E-02  4880   0.149E+00    0.628E-02
DAV:   6    -0.443513294070E+02   -0.33251E-05   -0.79963E-04  4576   0.187E-01    0.213E-02
DAV:   7    -0.443513310095E+02   -0.16026E-05   -0.25016E-05  5560   0.497E-02    0.102E-02
DAV:   8    -0.443513324706E+02   -0.14610E-05   -0.39306E-06  4996   0.150E-02    0.271E-03
DAV:   9    -0.443513325129E+02   -0.42372E-07   -0.25494E-07  4848   0.423E-03    0.551E-04
DAV:  10    -0.443513325832E+02   -0.70257E-07   -0.18423E-08  3336   0.100E-03    0.188E-04
DAV:  11    -0.443513325992E+02   -0.16014E-07   -0.34441E-09  2256   0.556E-04    0.850E-05
DAV:  12    -0.443513325998E+02   -0.63301E-09   -0.82579E-10  2256   0.253E-04
   9 F= -.44351333E+02 E0= -.44351150E+02  d E =-.543994E-03  mag=     0.0000
       N       E                     dE             d eps       ncg     rms          rms(c)
DAV:   1    -0.443600555940E+02   -0.87230E-02   -0.19064E-01  4696   0.288E+00    0.825E-01
DAV:   2    -0.443590876025E+02    0.96799E-03   -0.52503E-02  4832   0.236E+00    0.761E-01
DAV:   3    -0.443525434120E+02    0.65442E-02   -0.20845E-02  4808   0.155E+00    0.304E-01
DAV:   4    -0.443549440303E+02   -0.24006E-02   -0.14559E-02  4912   0.139E+00    0.786E-01
DAV:   5    -0.443514633219E+02    0.34807E-02   -0.97179E-03  4888   0.117E+00    0.509E-02
DAV:   6    -0.443514664962E+02   -0.31743E-05   -0.51100E-04  4608   0.147E-01    0.165E-02
DAV:   7    -0.443514677905E+02   -0.12942E-05   -0.16094E-05  5552   0.395E-02    0.824E-03
DAV:   8    -0.443514688234E+02   -0.10330E-05   -0.24254E-06  5012   0.121E-02    0.214E-03
DAV:   9    -0.443514688550E+02   -0.31592E-07   -0.15931E-07  4840   0.339E-03    0.503E-04
DAV:  10    -0.443514689124E+02   -0.57335E-07   -0.12324E-08  2852   0.836E-04    0.176E-04
DAV:  11    -0.443514689250E+02   -0.12624E-07   -0.29950E-09  2256   0.593E-04    0.842E-05
DAV:  12    -0.443514689273E+02   -0.23065E-08   -0.67697E-10  2224   0.233E-04
  10 F= -.44351469E+02 E0= -.44351157E+02  d E =-.680322E-03  mag=     0.0000
       N       E                     dE             d eps       ncg     rms          rms(c)
DAV:   1    -0.443532947681E+02   -0.18258E-02   -0.20133E-02  4784   0.128E+00    0.424E-01
DAV:   2    -0.443549831859E+02   -0.16884E-02   -0.26227E-02  4816   0.160E+00    0.547E-01
DAV:   3    -0.443520631552E+02    0.29200E-02   -0.13207E-02  4792   0.119E+00    0.337E-01
DAV:   4    -0.443515341132E+02    0.52904E-03   -0.28467E-03  4792   0.614E-01    0.744E-02
DAV:   5    -0.443514682197E+02    0.65893E-04   -0.17528E-04  4960   0.115E-01    0.213E-02
DAV:   6    -0.443514649937E+02    0.32260E-05   -0.22862E-05  4832   0.423E-02    0.418E-03
DAV:   7    -0.443514644229E+02    0.57078E-06   -0.11742E-06  4796   0.103E-02    0.146E-03
DAV:   8    -0.443514642693E+02    0.15358E-06   -0.96965E-08  4816   0.282E-03    0.541E-04
DAV:   9    -0.443514642222E+02    0.47126E-07   -0.81112E-09  2360   0.946E-04    0.124E-04
DAV:  10    -0.443514642210E+02    0.12224E-08   -0.15010E-09  2240   0.362E-04
  11 F= -.44351464E+02 E0= -.44351126E+02  d E =0.470630E-05  mag=     0.0000
       N       E                     dE             d eps       ncg     rms          rms(c)
DAV:   1    -0.443521340995E+02   -0.66988E-03   -0.72357E-03  4784   0.766E-01    0.255E-01
DAV:   2    -0.443527341339E+02   -0.60003E-03   -0.94965E-03  4816   0.961E-01    0.329E-01
DAV:   3    -0.443517008932E+02    0.10332E-02   -0.48403E-03  4792   0.716E-01    0.208E-01
DAV:   4    -0.443514946231E+02    0.20627E-03   -0.10487E-03  4776   0.382E-01    0.443E-02
DAV:   5    -0.443514739534E+02    0.20670E-04   -0.64187E-05  4960   0.686E-02    0.131E-02
DAV:   6    -0.443514727708E+02    0.11826E-05   -0.83318E-06  4852   0.255E-02    0.253E-03
DAV:   7    -0.443514730641E+02   -0.29329E-06   -0.45278E-07  4760   0.658E-03    0.912E-04
DAV:   8    -0.443514731594E+02   -0.95300E-07   -0.37779E-08  4216   0.184E-03    0.340E-04
DAV:   9    -0.443514731856E+02   -0.26193E-07   -0.36735E-09  2272   0.611E-04    0.709E-05
DAV:  10    -0.443514731880E+02   -0.23938E-08   -0.75471E-10  2208   0.236E-04
  12 F= -.44351473E+02 E0= -.44351151E+02  d E =-.426068E-05  mag=     0.0000
