       N       E                     dE             d eps       ncg     rms          rms(c)
DAV:   1    -0.224861916503E+02   -0.22486E+02   -0.10504E-01  7680   0.447E+00    0.218E-01
DAV:   2    -0.224866625057E+02   -0.47086E-03   -0.49754E-03  8800   0.102E+00    0.239E-01
DAV:   3    -0.224862178921E+02    0.44461E-03   -0.28199E-03  8784   0.117E+00    0.209E-01
DAV:   4    -0.224861028449E+02    0.11505E-03   -0.83585E-04  9312   0.685E-01    0.502E-02
DAV:   5    -0.224861046544E+02   -0.18095E-05   -0.57853E-05  8448   0.104E-01    0.202E-02
DAV:   6    -0.224861124004E+02   -0.77460E-05   -0.98466E-06  9104   0.362E-02    0.546E-03
DAV:   7    -0.224861104997E+02    0.19007E-05   -0.12805E-06  8752   0.158E-02    0.103E-03
DAV:   8    -0.224861090882E+02    0.14115E-05   -0.43568E-08  7304   0.316E-03    0.352E-04
DAV:   9    -0.224861092947E+02   -0.20650E-06   -0.62445E-09  4016   0.143E-03    0.119E-04
DAV:  10    -0.224861092756E+02    0.19096E-07   -0.16743E-09  3904   0.576E-04    0.410E-05
DAV:  11    -0.224861092736E+02    0.20555E-08   -0.29211E-10  3888   0.204E-04
   1 F= -.22486109E+02 E0= -.22486109E+02  d E =0.000000E+00  mag=     0.0000
