 running on   24 total cores
 distrk:  each k-point on   24 cores,    1 groups
 distr:  one band on    6 cores,    4 groups
 using from now: INCAR     
 vasp.5.4.4.18Apr17-6-g9f103f2a35 (build Jan 03 2018 06:08:52) complex          
  
 POSCAR found :  2 types and       4 ions
 scaLAPACK will be used
 WARNING: for PREC=h ENMAX is automatically increase by 25 %
        this was not the case for versions prior to vasp.4.4
 WARNING: for PREC=h ENMAX is automatically increase by 25 %
        this was not the case for versions prior to vasp.4.4
 LDA part: xc-table for Pade appr. of Perdew
 POSCAR, INCAR and KPOINTS ok, starting setup
 FFT: planning ...
 WAVECAR not read
 entering main loop
       N       E                     dE             d eps       ncg     rms          rms(c)
DAV:   1     0.592708062216E+03    0.59271E+03   -0.31596E+04  9304   0.198E+03
DAV:   2     0.501911083719E+01   -0.58769E+03   -0.56936E+03  7816   0.612E+02
DAV:   3    -0.253472429157E+02   -0.30366E+02   -0.28789E+02  8968   0.162E+02
DAV:   4    -0.259725251731E+02   -0.62528E+00   -0.62378E+00  8400   0.230E+01
DAV:   5    -0.259890707798E+02   -0.16546E-01   -0.16544E-01  9496   0.382E+00    0.194E+01
DAV:   6    -0.285567074254E+02   -0.25676E+01   -0.61175E+01  8856   0.110E+02    0.241E+01
DAV:   7    -0.224375640947E+02    0.61191E+01   -0.19837E+01  8800   0.741E+01    0.636E+00
DAV:   8    -0.225244347803E+02   -0.86871E-01   -0.29510E+00  8904   0.311E+01    0.570E+00
DAV:   9    -0.223656645737E+02    0.15877E+00   -0.48141E-01  9688   0.156E+01    0.120E+00
DAV:  10    -0.223606946633E+02    0.49699E-02   -0.84251E-02  8392   0.331E+00    0.298E-01
DAV:  11    -0.223619991723E+02   -0.13045E-02   -0.47378E-03  9088   0.783E-01    0.153E-01
DAV:  12    -0.223619554015E+02    0.43771E-04   -0.68950E-04  9272   0.460E-01    0.689E-02
DAV:  13    -0.223619469542E+02    0.84473E-05   -0.87594E-05  8720   0.135E-01    0.219E-02
DAV:  14    -0.223619465977E+02    0.35648E-06   -0.13150E-05 10616   0.504E-02    0.950E-03
DAV:  15    -0.223619467137E+02   -0.11599E-06   -0.28456E-06  9096   0.217E-02    0.608E-03
DAV:  16    -0.223619462443E+02    0.46942E-06   -0.79614E-07  9480   0.127E-02    0.164E-03
DAV:  17    -0.223619462293E+02    0.15038E-07   -0.11357E-07  7384   0.384E-03    0.839E-04
DAV:  18    -0.223619462411E+02   -0.11809E-07   -0.14807E-08  5048   0.212E-03    0.320E-04
DAV:  19    -0.223619462512E+02   -0.10150E-07   -0.72968E-09  4336   0.885E-04    0.214E-04
DAV:  20    -0.223619462555E+02   -0.43165E-08   -0.17029E-09  4256   0.456E-04
   1 F= -.22361946E+02 E0= -.22361491E+02  d E =-.223619E+02  mag=    -0.0001
 curvature:   0.00 expect dE= 0.000E+00 dE for cont linesearch  0.000E+00
 trial: gam= 0.00000 g(F)=  0.436E-02 g(S)=  0.272E+00 ort = 0.000E+00 (trialstep = 0.100E+01)
 search vector abs. value=  0.276E+00
 bond charge predicted
       N       E                     dE             d eps       ncg     rms          rms(c)
DAV:   1    -0.418289551910E+02   -0.19467E+02   -0.19764E+02  7680   0.215E+02    0.406E+01
DAV:   2    -0.428807676438E+02   -0.10518E+01   -0.27653E+02  8656   0.190E+02    0.373E+01
DAV:   3    -0.235989670390E+02    0.19282E+02   -0.82451E+01  9024   0.113E+02    0.128E+01
DAV:   4    -0.230077765994E+02    0.59119E+00   -0.73984E+00  9008   0.508E+01    0.819E+00
DAV:   5    -0.224698128521E+02    0.53796E+00   -0.13842E+00  9208   0.190E+01    0.206E+00
DAV:   6    -0.224161821007E+02    0.53631E-01   -0.16624E-01  8808   0.616E+00    0.662E-01
DAV:   7    -0.224137517223E+02    0.24304E-02   -0.23873E-02  8296   0.284E+00    0.363E-01
DAV:   8    -0.224131609534E+02    0.59077E-03   -0.31559E-03  9360   0.138E+00    0.124E-01
DAV:   9    -0.224131085432E+02    0.52410E-04   -0.41339E-04  9128   0.371E-01    0.224E-02
DAV:  10    -0.224131081885E+02    0.35468E-06   -0.51334E-05  9400   0.886E-02    0.153E-02
DAV:  11    -0.224131076332E+02    0.55533E-06   -0.91837E-06  8168   0.590E-02    0.393E-03
DAV:  12    -0.224131079612E+02   -0.32800E-06   -0.72418E-07  9192   0.142E-02    0.101E-03
DAV:  13    -0.224131079230E+02    0.38126E-07   -0.49128E-08  7616   0.281E-03    0.458E-04
DAV:  14    -0.224131079052E+02    0.17830E-07   -0.75044E-09  4352   0.106E-03    0.165E-04
DAV:  15    -0.224131078966E+02    0.85802E-08   -0.25166E-09  4200   0.493E-04
   2 F= -.22413108E+02 E0= -.22413183E+02  d E =-.511616E-01  mag=    -0.0000
 trial-energy change:   -0.051162  1 .order   -0.059353   -0.276006    0.157299
 step:   0.6100(harm=  0.6370)  dis= 0.00442  next Energy=   -22.444268 (dE=-0.823E-01)
 bond charge predicted
       N       E                     dE             d eps       ncg     rms          rms(c)
DAV:   1    -0.254930909143E+02   -0.30800E+01   -0.30250E+01  7680   0.785E+01    0.174E+01
DAV:   2    -0.271566270524E+02   -0.16635E+01   -0.43889E+01  8656   0.902E+01    0.186E+01
DAV:   3    -0.225345038262E+02    0.46221E+01   -0.16159E+01  8688   0.536E+01    0.402E+00
DAV:   4    -0.225288084888E+02    0.56953E-02   -0.88962E-01  8848   0.161E+01    0.308E+00
DAV:   5    -0.224461129766E+02    0.82696E-01   -0.11250E-01  9904   0.677E+00    0.666E-01
DAV:   6    -0.224435271945E+02    0.25858E-02   -0.18113E-02  8736   0.164E+00    0.195E-01
DAV:   7    -0.224433659317E+02    0.16126E-03   -0.12091E-03  8512   0.639E-01    0.538E-02
DAV:   8    -0.224433478868E+02    0.18045E-04   -0.14671E-04  8424   0.178E-01    0.117E-02
DAV:   9    -0.224433453741E+02    0.25127E-05   -0.11205E-05  8832   0.436E-02    0.638E-03
DAV:  10    -0.224433443891E+02    0.98502E-06   -0.70276E-07  9856   0.120E-02    0.206E-03
DAV:  11    -0.224433442889E+02    0.10014E-06   -0.19767E-07  8928   0.526E-03    0.384E-04
DAV:  12    -0.224433442935E+02   -0.45857E-08   -0.16614E-08  4560   0.210E-03
   3 F= -.22443344E+02 E0= -.22443167E+02  d E =-.813980E-01  mag=     0.0000
 curvature:  -0.32 expect dE=-0.728E-02 dE for cont linesearch -0.242E-06
 trial: gam= 0.08166 g(F)=  0.112E-02 g(S)=  0.219E-01 ort = 0.460E-03 (trialstep = 0.922E+00)
 search vector abs. value=  0.249E-01
 bond charge predicted
       N       E                     dE             d eps       ncg     rms          rms(c)
DAV:   1    -0.226221080574E+02   -0.17876E+00   -0.54105E+00  9232   0.421E+01    0.424E+00
DAV:   2    -0.226075439435E+02    0.14564E-01   -0.15900E+00  8816   0.177E+01    0.336E+00
DAV:   3    -0.225221997499E+02    0.85344E-01   -0.54888E-01  8800   0.140E+01    0.287E+00
DAV:   4    -0.225058338330E+02    0.16366E-01   -0.27331E-01  9088   0.130E+01    0.252E+00
DAV:   5    -0.224597060875E+02    0.46128E-01   -0.87875E-02  9952   0.583E+00    0.204E-01
DAV:   6    -0.224598207783E+02   -0.11469E-03   -0.83180E-03  7840   0.967E-01    0.758E-02
DAV:   7    -0.224597726292E+02    0.48149E-04   -0.29318E-04 10112   0.234E-01    0.374E-02
DAV:   8    -0.224597805694E+02   -0.79402E-05   -0.41071E-05  8736   0.661E-02    0.107E-02
DAV:   9    -0.224597802516E+02    0.31783E-06   -0.44738E-06  9904   0.397E-02    0.447E-03
DAV:  10    -0.224597800836E+02    0.16796E-06   -0.43849E-07  9264   0.131E-02    0.680E-04
DAV:  11    -0.224597800529E+02    0.30677E-07   -0.48247E-08  7560   0.308E-03    0.289E-04
DAV:  12    -0.224597800578E+02   -0.48603E-08   -0.37856E-09  4120   0.107E-03
   4 F= -.22459780E+02 E0= -.22459846E+02  d E =-.164358E-01  mag=     0.0000
 trial-energy change:   -0.016436  1 .order   -0.016923   -0.021239   -0.012607
 step:   2.2687(harm=  2.2687)  dis= 0.00969  next Energy=   -22.469475 (dE=-0.261E-01)
 bond charge predicted
       N       E                     dE             d eps       ncg     rms          rms(c)
DAV:   1    -0.228285707997E+02   -0.36879E+00   -0.11713E+01  9184   0.617E+01    0.638E+00
DAV:   2    -0.228165508185E+02    0.12020E-01   -0.36536E+00  8784   0.268E+01    0.511E+00
DAV:   3    -0.225859748771E+02    0.23058E+00   -0.12818E+00  8736   0.208E+01    0.402E+00
DAV:   4    -0.225816947032E+02    0.42802E-02   -0.61573E-01  9120   0.188E+01    0.406E+00
DAV:   5    -0.224683920843E+02    0.11330E+00   -0.30364E-01  9888   0.879E+00    0.286E-01
DAV:   6    -0.224687253188E+02   -0.33323E-03   -0.19001E-02  7808   0.133E+00    0.119E-01
DAV:   7    -0.224686080169E+02    0.11730E-03   -0.57543E-04 10400   0.356E-01    0.494E-02
DAV:   8    -0.224686246229E+02   -0.16606E-04   -0.81377E-05  8304   0.889E-02    0.121E-02
DAV:   9    -0.224686240352E+02    0.58771E-06   -0.54601E-06 10080   0.340E-02    0.504E-03
DAV:  10    -0.224686237314E+02    0.30377E-06   -0.66523E-07  8944   0.128E-02    0.603E-04
DAV:  11    -0.224686237518E+02   -0.20404E-07   -0.52235E-08  7472   0.354E-03    0.222E-04
DAV:  12    -0.224686237470E+02    0.48203E-08   -0.28529E-09  4096   0.760E-04
   5 F= -.22468624E+02 E0= -.22469232E+02  d E =-.252795E-01  mag=     0.0000
 curvature:  -1.23 expect dE=-0.145E-01 dE for cont linesearch -0.108E-03
 trial: gam= 0.62761 g(F)=  0.864E-03 g(S)=  0.110E-01 ort =-0.148E-02 (trialstep = 0.119E+01)
 search vector abs. value=  0.198E-01
 bond charge predicted
       N       E                     dE             d eps       ncg     rms          rms(c)
DAV:   1    -0.227882427678E+02   -0.31962E+00   -0.72397E+00  8208   0.262E+01    0.489E+00
DAV:   2    -0.227620115968E+02    0.26231E-01   -0.16537E+00  8944   0.216E+01    0.578E+00
DAV:   3    -0.226886080440E+02    0.73404E-01   -0.17157E+00  9088   0.230E+01    0.559E+00
DAV:   4    -0.225098916052E+02    0.17872E+00   -0.48781E-01  9280   0.155E+01    0.164E+00
DAV:   5    -0.224773102854E+02    0.32581E-01   -0.74330E-02  9264   0.374E+00    0.296E-01
DAV:   6    -0.224766043705E+02    0.70591E-03   -0.80010E-03  8344   0.107E+00    0.788E-02
DAV:   7    -0.224765444001E+02    0.59970E-04   -0.40269E-04  9248   0.275E-01    0.332E-02
DAV:   8    -0.224765542914E+02   -0.98913E-05   -0.39163E-05 10064   0.893E-02    0.142E-02
DAV:   9    -0.224765530962E+02    0.11952E-05   -0.42606E-06  8688   0.374E-02    0.351E-03
DAV:  10    -0.224765529622E+02    0.13399E-06   -0.68104E-07  8664   0.103E-02    0.448E-04
DAV:  11    -0.224765529726E+02   -0.10341E-07   -0.21102E-08  6192   0.167E-03    0.155E-04
DAV:  12    -0.224765529841E+02   -0.11545E-07   -0.32691E-09  4144   0.711E-04    0.604E-05
DAV:  13    -0.224765529846E+02   -0.43656E-09   -0.73352E-10  4048   0.341E-04
   6 F= -.22476553E+02 E0= -.22477181E+02  d E =-.792924E-02  mag=     0.0000
 trial-energy change:   -0.007929  1 .order   -0.008110   -0.013003   -0.003216
 step:   1.6539(harm=  1.5829)  dis= 0.00091  next Energy=   -22.477167 (dE=-0.854E-02)
 bond charge predicted
       N       E                     dE             d eps       ncg     rms          rms(c)
DAV:   1    -0.225230859948E+02   -0.46533E-01   -0.10769E+00  8176   0.998E+00    0.187E+00
DAV:   2    -0.225130424439E+02    0.10044E-01   -0.21408E-01  8896   0.789E+00    0.195E+00
DAV:   3    -0.225052014103E+02    0.78410E-02   -0.17304E-01  9312   0.888E+00    0.212E+00
DAV:   4    -0.224824788969E+02    0.22723E-01   -0.79202E-02  9152   0.686E+00    0.675E-01
DAV:   5    -0.224773214040E+02    0.51575E-02   -0.11132E-02  9568   0.156E+00    0.124E-01
DAV:   6    -0.224771878361E+02    0.13357E-03   -0.12025E-03  8304   0.424E-01    0.322E-02
DAV:   7    -0.224771797828E+02    0.80533E-05   -0.69353E-05  9384   0.113E-01    0.129E-02
DAV:   8    -0.224771808520E+02   -0.10692E-05   -0.71561E-06  9672   0.373E-02    0.536E-03
DAV:   9    -0.224771809887E+02   -0.13667E-06   -0.87088E-07  8544   0.153E-02    0.166E-03
DAV:  10    -0.224771809777E+02    0.10998E-07   -0.12506E-07  8816   0.430E-03    0.268E-04
DAV:  11    -0.224771809810E+02   -0.33360E-08   -0.46860E-09  4112   0.115E-03
   7 F= -.22477181E+02 E0= -.22477811E+02  d E =-.855723E-02  mag=    -0.0000
 curvature:  -1.39 expect dE=-0.387E-02 dE for cont linesearch -0.146E-07
 trial: gam= 0.12122 g(F)=  0.282E-03 g(S)=  0.250E-02 ort =-0.144E-04 (trialstep = 0.128E+01)
 search vector abs. value=  0.307E-02
 bond charge predicted
       N       E                     dE             d eps       ncg     rms          rms(c)
DAV:   1    -0.226703782989E+02   -0.19320E+00   -0.25096E+00  7760   0.310E+01    0.451E+00
DAV:   2    -0.227631625347E+02   -0.92784E-01   -0.28048E+00  8688   0.231E+01    0.459E+00
DAV:   3    -0.224861473751E+02    0.27702E+00   -0.93859E-01  8736   0.131E+01    0.923E-01
DAV:   4    -0.224953243695E+02   -0.91770E-02   -0.66066E-02 10064   0.575E+00    0.162E+00
DAV:   5    -0.224780073025E+02    0.17317E-01   -0.35188E-02  9616   0.494E+00    0.162E-01
DAV:   6    -0.224778886685E+02    0.11863E-03   -0.28711E-03  8000   0.466E-01    0.635E-02
DAV:   7    -0.224778651694E+02    0.23499E-04   -0.13991E-04 10024   0.233E-01    0.249E-02
DAV:   8    -0.224778625259E+02    0.26435E-05   -0.15318E-05  9168   0.728E-02    0.330E-03
DAV:   9    -0.224778620018E+02    0.52412E-06   -0.15032E-06  8560   0.158E-02    0.237E-03
DAV:  10    -0.224778617581E+02    0.24365E-06   -0.16624E-07  8888   0.524E-03    0.280E-04
DAV:  11    -0.224778617167E+02    0.41402E-07   -0.73269E-09  4248   0.112E-03    0.110E-04
DAV:  12    -0.224778617103E+02    0.64319E-08   -0.14350E-09  4080   0.423E-04
   8 F= -.22477862E+02 E0= -.22478436E+02  d E =-.680729E-03  mag=    -0.0000
 trial-energy change:   -0.000681  1 .order   -0.000668   -0.003575    0.002239
 step:   0.7934(harm=  0.7894)  dis= 0.00152  next Energy=   -22.478289 (dE=-0.111E-02)
 bond charge predicted
       N       E                     dE             d eps       ncg     rms          rms(c)
DAV:   1    -0.225066500303E+02   -0.28788E-01   -0.36838E-01  7744   0.119E+01    0.173E+00
DAV:   2    -0.225234082561E+02   -0.16758E-01   -0.42387E-01  8736   0.895E+00    0.189E+00
DAV:   3    -0.224851262998E+02    0.38282E-01   -0.14904E-01  8816   0.642E+00    0.106E+00
DAV:   4    -0.224792862691E+02    0.58400E-02   -0.30286E-02  8368   0.454E+00    0.311E-01
DAV:   5    -0.224783397286E+02    0.94654E-03   -0.25566E-03  9136   0.751E-01    0.805E-02
DAV:   6    -0.224782908393E+02    0.48889E-04   -0.26151E-04  8912   0.171E-01    0.176E-02
DAV:   7    -0.224782910314E+02   -0.19211E-06   -0.18190E-05  8592   0.652E-02    0.688E-03
DAV:   8    -0.224782911272E+02   -0.95730E-07   -0.18713E-06  9800   0.216E-02    0.197E-03
DAV:   9    -0.224782912318E+02   -0.10459E-06   -0.15811E-07  9056   0.625E-03    0.557E-04
DAV:  10    -0.224782912419E+02   -0.10143E-07   -0.12967E-08  4360   0.203E-03    0.164E-04
DAV:  11    -0.224782912431E+02   -0.12478E-08   -0.23266E-09  4008   0.707E-04
   9 F= -.22478291E+02 E0= -.22478889E+02  d E =-.111026E-02  mag=    -0.0000
 curvature:  -0.44 expect dE=-0.157E-03 dE for cont linesearch -0.115E-09
 trial: gam= 0.13866 g(F)=  0.880E-04 g(S)=  0.272E-03 ort = 0.900E-06 (trialstep = 0.119E+01)
 search vector abs. value=  0.420E-03
 bond charge predicted
       N       E                     dE             d eps       ncg     rms          rms(c)
DAV:   1    -0.224815453976E+02   -0.32542E-02   -0.21535E-01  8192   0.144E+01    0.936E-01
DAV:   2    -0.224907506525E+02   -0.92053E-02   -0.16390E-01  8640   0.525E+00    0.100E+00
DAV:   3    -0.224822349067E+02    0.85157E-02   -0.45415E-02  9040   0.403E+00    0.765E-01
DAV:   4    -0.224790761026E+02    0.31588E-02   -0.14282E-02  8416   0.313E+00    0.234E-01
DAV:   5    -0.224784685873E+02    0.60752E-03   -0.16611E-03  9408   0.569E-01    0.293E-02
DAV:   6    -0.224784617247E+02    0.68626E-05   -0.11916E-04  9056   0.130E-01    0.164E-02
DAV:   7    -0.224784605802E+02    0.11445E-05   -0.85734E-06 10704   0.329E-02    0.510E-03
DAV:   8    -0.224784613059E+02   -0.72563E-06   -0.11866E-06  8584   0.112E-02    0.105E-03
DAV:   9    -0.224784613258E+02   -0.19936E-07   -0.54585E-08  7648   0.264E-03    0.343E-04
DAV:  10    -0.224784613354E+02   -0.96297E-08   -0.92944E-09  4344   0.137E-03
  10 F= -.22478461E+02 E0= -.22479049E+02  d E =-.170092E-03  mag=    -0.0000
 trial-energy change:   -0.000170  1 .order   -0.000169   -0.000427    0.000090
 step:   0.9821(harm=  0.9793)  dis= 0.00127  next Energy=   -22.478469 (dE=-0.178E-03)
 bond charge predicted
       N       E                     dE             d eps       ncg     rms          rms(c)
DAV:   1    -0.224785601106E+02   -0.98785E-04   -0.63179E-03  8120   0.248E+00    0.162E-01
DAV:   2    -0.224788478927E+02   -0.28778E-03   -0.48311E-03  8672   0.908E-01    0.176E-01
DAV:   3    -0.224785803901E+02    0.26750E-03   -0.13773E-03  9048   0.736E-01    0.132E-01
DAV:   4    -0.224784882662E+02    0.92124E-04   -0.42956E-04  8464   0.484E-01    0.412E-02
DAV:   5    -0.224784693463E+02    0.18920E-04   -0.47236E-05  9480   0.104E-01    0.516E-03
DAV:   6    -0.224784689677E+02    0.37861E-06   -0.35425E-06  9072   0.215E-02    0.269E-03
DAV:   7    -0.224784687238E+02    0.24393E-06   -0.23718E-07 10776   0.531E-03    0.862E-04
DAV:   8    -0.224784686297E+02    0.94098E-07   -0.30146E-08  6984   0.177E-03    0.201E-04
DAV:   9    -0.224784686208E+02    0.89203E-08   -0.20712E-09  4056   0.581E-04
  11 F= -.22478469E+02 E0= -.22479058E+02  d E =-.177378E-03  mag=    -0.0000
 curvature:  -0.57 expect dE=-0.129E-04 dE for cont linesearch -0.307E-08
 trial: gam= 0.06256 g(F)=  0.488E-05 g(S)=  0.178E-04 ort = 0.150E-05 (trialstep = 0.115E+01)
 search vector abs. value=  0.245E-04
 bond charge predicted
       N       E                     dE             d eps       ncg     rms          rms(c)
DAV:   1    -0.224784218933E+02    0.46736E-04   -0.10222E-02  8576   0.341E+00    0.167E-01
DAV:   2    -0.224788903498E+02   -0.46846E-03   -0.62327E-03  8720   0.108E+00    0.205E-01
DAV:   3    -0.224787061955E+02    0.18415E-03   -0.18569E-03  9256   0.103E+00    0.177E-01
DAV:   4    -0.224785148114E+02    0.19138E-03   -0.60830E-04  9104   0.594E-01    0.475E-02
DAV:   5    -0.224784882717E+02    0.26540E-04   -0.74325E-05  9512   0.130E-01    0.820E-03
DAV:   6    -0.224784877109E+02    0.56084E-06   -0.63640E-06  8352   0.326E-02    0.303E-03
DAV:   7    -0.224784874774E+02    0.23343E-06   -0.41653E-07  9672   0.935E-03    0.115E-03
DAV:   8    -0.224784874064E+02    0.70986E-07   -0.60004E-08  7424   0.265E-03    0.361E-04
DAV:   9    -0.224784873902E+02    0.16196E-07   -0.53221E-09  4064   0.112E-03    0.935E-05
DAV:  10    -0.224784873838E+02    0.64101E-08   -0.11392E-09  3960   0.415E-04
  12 F= -.22478487E+02 E0= -.22479077E+02  d E =-.187631E-04  mag=     0.0000
 trial-energy change:   -0.000019  1 .order   -0.000019   -0.000026   -0.000011
 step:   2.0316(harm=  2.0316)  dis= 0.00066  next Energy=   -22.478492 (dE=-0.232E-04)
 bond charge predicted
       N       E                     dE             d eps       ncg     rms          rms(c)
DAV:   1    -0.224784526737E+02    0.34717E-04   -0.61321E-03  8576   0.264E+00    0.130E-01
DAV:   2    -0.224787343566E+02   -0.28168E-03   -0.37401E-03  8704   0.833E-01    0.159E-01
DAV:   3    -0.224786235659E+02    0.11079E-03   -0.11119E-03  9248   0.790E-01    0.137E-01
DAV:   4    -0.224785086963E+02    0.11487E-03   -0.36423E-04  9104   0.462E-01    0.368E-02
DAV:   5    -0.224784926726E+02    0.16024E-04   -0.44884E-05  9504   0.101E-01    0.633E-03
DAV:   6    -0.224784923033E+02    0.36939E-06   -0.38212E-06  8400   0.252E-02    0.234E-03
DAV:   7    -0.224784921357E+02    0.16760E-06   -0.24870E-07  9440   0.721E-03    0.893E-04
DAV:   8    -0.224784920788E+02    0.56874E-07   -0.35927E-08  6976   0.205E-03    0.279E-04
DAV:   9    -0.224784920660E+02    0.12749E-07   -0.33432E-09  4000   0.876E-04    0.726E-05
DAV:  10    -0.224784920619E+02    0.41437E-08   -0.72998E-10  3920   0.332E-04
  13 F= -.22478492E+02 E0= -.22479082E+02  d E =-.234411E-04  mag=    -0.0000
 curvature:  -1.09 expect dE=-0.195E-04 dE for cont linesearch -0.403E-08
 trial: gam= 0.77974 g(F)=  0.175E-05 g(S)=  0.161E-04 ort = 0.301E-06 (trialstep = 0.976E+00)
 search vector abs. value=  0.333E-04
 bond charge predicted
       N       E                     dE             d eps       ncg     rms          rms(c)
DAV:   1    -0.224791232899E+02   -0.63122E-03   -0.10434E-02  8320   0.153E+00    0.247E-01
DAV:   2    -0.224792917834E+02   -0.16849E-03   -0.73589E-03  8752   0.117E+00    0.244E-01
DAV:   3    -0.224785485101E+02    0.74327E-03   -0.24707E-03  8752   0.678E-01    0.662E-02
DAV:   4    -0.224786327579E+02   -0.84248E-04   -0.44628E-04  9648   0.513E-01    0.142E-01
DAV:   5    -0.224785020051E+02    0.13075E-03   -0.27073E-04  9584   0.406E-01    0.864E-03
DAV:   6    -0.224785021870E+02   -0.18184E-06   -0.18272E-05  8176   0.404E-02    0.405E-03
DAV:   7    -0.224785022716E+02   -0.84618E-07   -0.61010E-07 10432   0.125E-02    0.139E-03
DAV:   8    -0.224785024020E+02   -0.13039E-06   -0.79318E-08  7824   0.397E-03    0.328E-04
DAV:   9    -0.224785024120E+02   -0.10035E-07   -0.37913E-09  4080   0.105E-03    0.115E-04
DAV:  10    -0.224785024218E+02   -0.98080E-08   -0.78056E-10  3984   0.349E-04
  14 F= -.22478502E+02 E0= -.22479095E+02  d E =-.103599E-04  mag=     0.0000
 trial-energy change:   -0.000010  1 .order   -0.000010   -0.000018   -0.000003
 step:   1.1928(harm=  1.1873)  dis= 0.00013  next Energy=   -22.478503 (dE=-0.107E-04)
 bond charge predicted
       N       E                     dE             d eps       ncg     rms          rms(c)
DAV:   1    -0.224785337679E+02   -0.31356E-04   -0.51702E-04  8336   0.341E-01    0.551E-02
DAV:   2    -0.224785414081E+02   -0.76402E-05   -0.36660E-04  8768   0.261E-01    0.544E-02
DAV:   3    -0.224785047544E+02    0.36654E-04   -0.12416E-04  8768   0.151E-01    0.136E-02
DAV:   4    -0.224785080852E+02   -0.33308E-05   -0.17681E-05 10080   0.994E-02    0.293E-02
DAV:   5    -0.224785026895E+02    0.53957E-05   -0.11726E-05  9584   0.863E-02    0.187E-03
DAV:   6    -0.224785027226E+02   -0.33106E-07   -0.76795E-07  8208   0.823E-03    0.850E-04
DAV:   7    -0.224785027545E+02   -0.31931E-07   -0.20479E-08  5952   0.239E-03    0.289E-04
DAV:   8    -0.224785027811E+02   -0.26599E-07   -0.63386E-09  4000   0.105E-03    0.818E-05
DAV:   9    -0.224785027840E+02   -0.28467E-08   -0.13337E-09  3952   0.432E-04
  15 F= -.22478503E+02 E0= -.22479095E+02  d E =-.107221E-04  mag=    -0.0000
 curvature:  -1.09 expect dE=-0.849E-05 dE for cont linesearch -0.318E-09
 trial: gam= 0.45981 g(F)=  0.388E-05 g(S)=  0.391E-05 ort =-0.986E-07 (trialstep = 0.102E+01)
 search vector abs. value=  0.147E-04
 bond charge predicted
       N       E                     dE             d eps       ncg     rms          rms(c)
DAV:   1    -0.224785449429E+02   -0.42162E-04   -0.39713E-03  9968   0.161E+00    0.102E-01
DAV:   2    -0.224786220309E+02   -0.77088E-04   -0.15302E-03  8736   0.550E-01    0.108E-01
DAV:   3    -0.224785832550E+02    0.38776E-04   -0.51004E-04  9328   0.548E-01    0.101E-01
DAV:   4    -0.224785246938E+02    0.58561E-04   -0.22553E-04  9296   0.361E-01    0.386E-02
DAV:   5    -0.224785084369E+02    0.16257E-04   -0.39980E-05  9920   0.109E-01    0.385E-03
DAV:   6    -0.224785083596E+02    0.77296E-07   -0.30938E-06  7968   0.221E-02    0.172E-03
DAV:   7    -0.224785082633E+02    0.96281E-07   -0.15367E-07 10000   0.539E-03    0.691E-04
DAV:   8    -0.224785082420E+02    0.21382E-07   -0.17296E-08  4576   0.163E-03    0.227E-04
DAV:   9    -0.224785082336E+02    0.83328E-08   -0.35690E-09  4040   0.815E-04
  16 F= -.22478508E+02 E0= -.22479100E+02  d E =-.544968E-05  mag=     0.0000
 trial-energy change:   -0.000005  1 .order   -0.000005   -0.000008   -0.000003
 step:   1.4244(harm=  1.5367)  dis= 0.00024  next Energy=   -22.478509 (dE=-0.599E-05)
 bond charge predicted
       N       E                     dE             d eps       ncg     rms          rms(c)
DAV:   1    -0.224785146468E+02   -0.64048E-05   -0.62877E-04  9952   0.641E-01    0.404E-02
DAV:   2    -0.224785272693E+02   -0.12623E-04   -0.24230E-04  8720   0.219E-01    0.431E-02
DAV:   3    -0.224785210008E+02    0.62686E-05   -0.80898E-05  9328   0.217E-01    0.403E-02
DAV:   4    -0.224785115703E+02    0.94305E-05   -0.35595E-05  9296   0.144E-01    0.153E-02
DAV:   5    -0.224785090144E+02    0.25559E-05   -0.63203E-06  9920   0.429E-02    0.154E-03
DAV:   6    -0.224785089899E+02    0.24515E-07   -0.48684E-07  7968   0.879E-03    0.686E-04
DAV:   7    -0.224785089592E+02    0.30699E-07   -0.22233E-08  6496   0.214E-03    0.274E-04
DAV:   8    -0.224785089488E+02    0.10365E-07   -0.42506E-09  3976   0.846E-04    0.906E-05
DAV:   9    -0.224785089462E+02    0.25848E-08   -0.10642E-09  3952   0.424E-04
  17 F= -.22478509E+02 E0= -.22479101E+02  d E =-.616225E-05  mag=    -0.0000
 curvature:  -1.39 expect dE=-0.449E-06 dE for cont linesearch -0.428E-07
 trial: gam=-0.06791 g(F)=  0.195E-06 g(S)=  0.127E-06 ort = 0.673E-06 (trialstep = 0.110E+01)
 search vector abs. value=  0.299E-06
 reached required accuracy - stopping structural energy minimisation
 writing wavefunctions
