   4   4   0   0
  0.1136045E+02  0.4139067E-09  0.4139067E-09  0.2718545E-09  0.5000000E-15
  1.000000000000000E-004
  CAR 
 unknown system                          
     24.88889086    -58.79936785  301      8.47828771      1.00000000
    -58.799  0.0000E+00  0.0000E+00  0.0000E+00  0.0000E+00
    -58.520  0.0000E+00  0.0000E+00  0.0000E+00  0.0000E+00
    -58.241  0.0000E+00  0.0000E+00  0.0000E+00  0.0000E+00
    -57.962  0.0000E+00  0.0000E+00  0.0000E+00  0.0000E+00
    -57.684  0.0000E+00  0.0000E+00  0.0000E+00  0.0000E+00
    -57.405  0.0000E+00  0.0000E+00  0.0000E+00  0.0000E+00
    -57.126  0.0000E+00  0.0000E+00  0.0000E+00  0.0000E+00
    -56.847  0.0000E+00  0.0000E+00  0.0000E+00  0.0000E+00
    -56.568  0.0000E+00  0.0000E+00  0.0000E+00  0.0000E+00
    -56.289  0.0000E+00  0.0000E+00  0.0000E+00  0.0000E+00
    -56.010  0.0000E+00  0.0000E+00  0.0000E+00  0.0000E+00
    -55.731  0.0000E+00  0.0000E+00  0.0000E+00  0.0000E+00
    -55.452  0.0000E+00  0.0000E+00  0.0000E+00  0.0000E+00
    -55.173  0.0000E+00  0.0000E+00  0.0000E+00  0.0000E+00
    -54.894  0.5306E+02  0.5306E+02  0.3959E+01  0.3959E+01
    -54.615  0.5911E+02  0.5911E+02  0.8871E+01  0.8871E+01
    -54.336  0.0000E+00  0.0000E+00  0.9000E+01  0.9000E+01
    -54.057  0.0000E+00  0.0000E+00  0.9000E+01  0.9000E+01
    -53.778  0.0000E+00  0.0000E+00  0.9000E+01  0.9000E+01
    -53.499  0.0000E+00  0.0000E+00  0.9000E+01  0.9000E+01
    -53.220  0.0000E+00  0.0000E+00  0.9000E+01  0.9000E+01
    -52.941  0.0000E+00  0.0000E+00  0.9000E+01  0.9000E+01
    -52.662  0.0000E+00  0.0000E+00  0.9000E+01  0.9000E+01
    -52.383  0.0000E+00  0.0000E+00  0.9000E+01  0.9000E+01
    -52.104  0.0000E+00  0.0000E+00  0.9000E+01  0.9000E+01
    -51.825  0.0000E+00  0.0000E+00  0.9000E+01  0.9000E+01
    -51.546  0.0000E+00  0.0000E+00  0.9000E+01  0.9000E+01
    -51.267  0.0000E+00  0.0000E+00  0.9000E+01  0.9000E+01
    -50.988  0.0000E+00  0.0000E+00  0.9000E+01  0.9000E+01
    -50.710  0.0000E+00  0.0000E+00  0.9000E+01  0.9000E+01
    -50.431  0.0000E+00  0.0000E+00  0.9000E+01  0.9000E+01
    -50.152  0.0000E+00  0.0000E+00  0.9000E+01  0.9000E+01
    -49.873  0.0000E+00  0.0000E+00  0.9000E+01  0.9000E+01
    -49.594  0.0000E+00  0.0000E+00  0.9000E+01  0.9000E+01
    -49.315  0.0000E+00  0.0000E+00  0.9000E+01  0.9000E+01
    -49.036  0.0000E+00  0.0000E+00  0.9000E+01  0.9000E+01
    -48.757  0.0000E+00  0.0000E+00  0.9000E+01  0.9000E+01
    -48.478  0.0000E+00  0.0000E+00  0.9000E+01  0.9000E+01
    -48.199  0.0000E+00  0.0000E+00  0.9000E+01  0.9000E+01
    -47.920  0.0000E+00  0.0000E+00  0.9000E+01  0.9000E+01
    -47.641  0.0000E+00  0.0000E+00  0.9000E+01  0.9000E+01
    -47.362  0.0000E+00  0.0000E+00  0.9000E+01  0.9000E+01
    -47.083  0.0000E+00  0.0000E+00  0.9000E+01  0.9000E+01
    -46.804  0.0000E+00  0.0000E+00  0.9000E+01  0.9000E+01
    -46.525  0.0000E+00  0.0000E+00  0.9000E+01  0.9000E+01
    -46.246  0.0000E+00  0.0000E+00  0.9000E+01  0.9000E+01
    -45.967  0.0000E+00  0.0000E+00  0.9000E+01  0.9000E+01
    -45.688  0.0000E+00  0.0000E+00  0.9000E+01  0.9000E+01
    -45.409  0.0000E+00  0.0000E+00  0.9000E+01  0.9000E+01
    -45.130  0.0000E+00  0.0000E+00  0.9000E+01  0.9000E+01
    -44.851  0.0000E+00  0.0000E+00  0.9000E+01  0.9000E+01
    -44.572  0.0000E+00  0.0000E+00  0.9000E+01  0.9000E+01
    -44.293  0.0000E+00  0.0000E+00  0.9000E+01  0.9000E+01
    -44.014  0.0000E+00  0.0000E+00  0.9000E+01  0.9000E+01
    -43.735  0.0000E+00  0.0000E+00  0.9000E+01  0.9000E+01
    -43.457  0.0000E+00  0.0000E+00  0.9000E+01  0.9000E+01
    -43.178  0.0000E+00  0.0000E+00  0.9000E+01  0.9000E+01
    -42.899  0.0000E+00  0.0000E+00  0.9000E+01  0.9000E+01
    -42.620  0.0000E+00  0.0000E+00  0.9000E+01  0.9000E+01
    -42.341  0.0000E+00  0.0000E+00  0.9000E+01  0.9000E+01
    -42.062  0.0000E+00  0.0000E+00  0.9000E+01  0.9000E+01
    -41.783  0.0000E+00  0.0000E+00  0.9000E+01  0.9000E+01
    -41.504  0.0000E+00  0.0000E+00  0.9000E+01  0.9000E+01
    -41.225  0.0000E+00  0.0000E+00  0.9000E+01  0.9000E+01
    -40.946  0.0000E+00  0.0000E+00  0.9000E+01  0.9000E+01
    -40.667  0.0000E+00  0.0000E+00  0.9000E+01  0.9000E+01
    -40.388  0.0000E+00  0.0000E+00  0.9000E+01  0.9000E+01
    -40.109  0.0000E+00  0.0000E+00  0.9000E+01  0.9000E+01
    -39.830  0.0000E+00  0.0000E+00  0.9000E+01  0.9000E+01
    -39.551  0.0000E+00  0.0000E+00  0.9000E+01  0.9000E+01
    -39.272  0.0000E+00  0.0000E+00  0.9000E+01  0.9000E+01
    -38.993  0.0000E+00  0.0000E+00  0.9000E+01  0.9000E+01
    -38.714  0.0000E+00  0.0000E+00  0.9000E+01  0.9000E+01
    -38.435  0.0000E+00  0.0000E+00  0.9000E+01  0.9000E+01
    -38.156  0.0000E+00  0.0000E+00  0.9000E+01  0.9000E+01
    -37.877  0.0000E+00  0.0000E+00  0.9000E+01  0.9000E+01
    -37.598  0.0000E+00  0.0000E+00  0.9000E+01  0.9000E+01
    -37.319  0.0000E+00  0.0000E+00  0.9000E+01  0.9000E+01
    -37.040  0.0000E+00  0.0000E+00  0.9000E+01  0.9000E+01
    -36.761  0.0000E+00  0.0000E+00  0.9000E+01  0.9000E+01
    -36.482  0.0000E+00  0.0000E+00  0.9000E+01  0.9000E+01
    -36.204  0.0000E+00  0.0000E+00  0.9000E+01  0.9000E+01
    -35.925  0.0000E+00  0.0000E+00  0.9000E+01  0.9000E+01
    -35.646  0.0000E+00  0.0000E+00  0.9000E+01  0.9000E+01
    -35.367  0.0000E+00  0.0000E+00  0.9000E+01  0.9000E+01
    -35.088  0.0000E+00  0.0000E+00  0.9000E+01  0.9000E+01
    -34.809  0.0000E+00  0.0000E+00  0.9000E+01  0.9000E+01
    -34.530  0.0000E+00  0.0000E+00  0.9000E+01  0.9000E+01
    -34.251  0.0000E+00  0.0000E+00  0.9000E+01  0.9000E+01
    -33.972  0.0000E+00  0.0000E+00  0.9000E+01  0.9000E+01
    -33.693  0.0000E+00  0.0000E+00  0.9000E+01  0.9000E+01
    -33.414  0.0000E+00  0.0000E+00  0.9000E+01  0.9000E+01
    -33.135  0.0000E+00  0.0000E+00  0.9000E+01  0.9000E+01
    -32.856  0.0000E+00  0.0000E+00  0.9000E+01  0.9000E+01
    -32.577  0.0000E+00  0.0000E+00  0.9000E+01  0.9000E+01
    -32.298  0.0000E+00  0.0000E+00  0.9000E+01  0.9000E+01
    -32.019  0.0000E+00  0.0000E+00  0.9000E+01  0.9000E+01
    -31.740  0.0000E+00  0.0000E+00  0.9000E+01  0.9000E+01
    -31.461  0.0000E+00  0.0000E+00  0.9000E+01  0.9000E+01
    -31.182  0.0000E+00  0.0000E+00  0.9000E+01  0.9000E+01
    -30.903  0.0000E+00  0.0000E+00  0.9000E+01  0.9000E+01
    -30.624  0.0000E+00  0.0000E+00  0.9000E+01  0.9000E+01
    -30.345  0.0000E+00  0.0000E+00  0.9000E+01  0.9000E+01
    -30.066  0.0000E+00  0.0000E+00  0.9000E+01  0.9000E+01
    -29.787  0.0000E+00  0.0000E+00  0.9000E+01  0.9000E+01
    -29.508  0.0000E+00  0.0000E+00  0.9000E+01  0.9000E+01
    -29.230  0.0000E+00  0.0000E+00  0.9000E+01  0.9000E+01
    -28.951  0.0000E+00  0.0000E+00  0.9000E+01  0.9000E+01
    -28.672  0.0000E+00  0.0000E+00  0.9000E+01  0.9000E+01
    -28.393  0.0000E+00  0.0000E+00  0.9000E+01  0.9000E+01
    -28.114  0.0000E+00  0.0000E+00  0.9000E+01  0.9000E+01
    -27.835  0.0000E+00  0.0000E+00  0.9000E+01  0.9000E+01
    -27.556  0.0000E+00  0.0000E+00  0.9000E+01  0.9000E+01
    -27.277  0.0000E+00  0.0000E+00  0.9000E+01  0.9000E+01
    -26.998  0.0000E+00  0.0000E+00  0.9000E+01  0.9000E+01
    -26.719  0.0000E+00  0.0000E+00  0.9000E+01  0.9000E+01
    -26.440  0.0000E+00  0.0000E+00  0.9000E+01  0.9000E+01
    -26.161  0.0000E+00  0.0000E+00  0.9000E+01  0.9000E+01
    -25.882  0.0000E+00  0.0000E+00  0.9000E+01  0.9000E+01
    -25.603  0.0000E+00  0.0000E+00  0.9000E+01  0.9000E+01
    -25.324  0.0000E+00  0.0000E+00  0.9000E+01  0.9000E+01
    -25.045  0.0000E+00  0.0000E+00  0.9000E+01  0.9000E+01
    -24.766  0.0000E+00  0.0000E+00  0.9000E+01  0.9000E+01
    -24.487  0.0000E+00  0.0000E+00  0.9000E+01  0.9000E+01
    -24.208  0.0000E+00  0.0000E+00  0.9000E+01  0.9000E+01
    -23.929  0.0000E+00  0.0000E+00  0.9000E+01  0.9000E+01
    -23.650  0.0000E+00  0.0000E+00  0.9000E+01  0.9000E+01
    -23.371  0.0000E+00  0.0000E+00  0.9000E+01  0.9000E+01
    -23.092  0.0000E+00  0.0000E+00  0.9000E+01  0.9000E+01
    -22.813  0.0000E+00  0.0000E+00  0.9000E+01  0.9000E+01
    -22.534  0.0000E+00  0.0000E+00  0.9000E+01  0.9000E+01
    -22.255  0.0000E+00  0.0000E+00  0.9000E+01  0.9000E+01
    -21.977  0.0000E+00  0.0000E+00  0.9000E+01  0.9000E+01
    -21.698  0.0000E+00  0.0000E+00  0.9000E+01  0.9000E+01
    -21.419  0.0000E+00  0.0000E+00  0.9000E+01  0.9000E+01
    -21.140  0.0000E+00  0.0000E+00  0.9000E+01  0.9000E+01
    -20.861  0.0000E+00  0.0000E+00  0.9000E+01  0.9000E+01
    -20.582  0.0000E+00  0.0000E+00  0.9000E+01  0.9000E+01
    -20.303  0.0000E+00  0.0000E+00  0.9000E+01  0.9000E+01
    -20.024  0.0000E+00  0.0000E+00  0.9000E+01  0.9000E+01
    -19.745  0.0000E+00  0.0000E+00  0.9000E+01  0.9000E+01
    -19.466  0.0000E+00  0.0000E+00  0.9000E+01  0.9000E+01
    -19.187  0.0000E+00  0.0000E+00  0.9000E+01  0.9000E+01
    -18.908  0.0000E+00  0.0000E+00  0.9000E+01  0.9000E+01
    -18.629  0.0000E+00  0.0000E+00  0.9000E+01  0.9000E+01
    -18.350  0.0000E+00  0.0000E+00  0.9000E+01  0.9000E+01
    -18.071  0.0000E+00  0.0000E+00  0.9000E+01  0.9000E+01
    -17.792  0.0000E+00  0.0000E+00  0.9000E+01  0.9000E+01
    -17.513  0.0000E+00  0.0000E+00  0.9000E+01  0.9000E+01
    -17.234  0.0000E+00  0.0000E+00  0.9000E+01  0.9000E+01
    -16.955  0.0000E+00  0.0000E+00  0.9000E+01  0.9000E+01
    -16.676  0.0000E+00  0.0000E+00  0.9000E+01  0.9000E+01
    -16.397  0.0000E+00  0.0000E+00  0.9000E+01  0.9000E+01
    -16.118  0.0000E+00  0.0000E+00  0.9000E+01  0.9000E+01
    -15.839  0.0000E+00  0.0000E+00  0.9000E+01  0.9000E+01
    -15.560  0.0000E+00  0.0000E+00  0.9000E+01  0.9000E+01
    -15.281  0.0000E+00  0.0000E+00  0.9000E+01  0.9000E+01
    -15.003  0.0000E+00  0.0000E+00  0.9000E+01  0.9000E+01
    -14.724  0.0000E+00  0.0000E+00  0.9000E+01  0.9000E+01
    -14.445  0.0000E+00  0.0000E+00  0.9000E+01  0.9000E+01
    -14.166  0.0000E+00  0.0000E+00  0.9000E+01  0.9000E+01
    -13.887  0.0000E+00  0.0000E+00  0.9000E+01  0.9000E+01
    -13.608  0.0000E+00  0.0000E+00  0.9000E+01  0.9000E+01
    -13.329  0.0000E+00  0.0000E+00  0.9000E+01  0.9000E+01
    -13.050  0.0000E+00  0.0000E+00  0.9000E+01  0.9000E+01
    -12.771  0.0000E+00  0.0000E+00  0.9000E+01  0.9000E+01
    -12.492  0.0000E+00  0.0000E+00  0.9000E+01  0.9000E+01
    -12.213  0.0000E+00  0.0000E+00  0.9000E+01  0.9000E+01
    -11.934  0.0000E+00  0.0000E+00  0.9000E+01  0.9000E+01
    -11.655  0.0000E+00  0.0000E+00  0.9000E+01  0.9000E+01
    -11.376  0.0000E+00  0.0000E+00  0.9000E+01  0.9000E+01
    -11.097  0.0000E+00  0.0000E+00  0.9000E+01  0.9000E+01
    -10.818  0.0000E+00  0.0000E+00  0.9000E+01  0.9000E+01
    -10.539  0.0000E+00  0.0000E+00  0.9000E+01  0.9000E+01
    -10.260  0.0000E+00  0.0000E+00  0.9000E+01  0.9000E+01
     -9.981  0.0000E+00  0.0000E+00  0.9000E+01  0.9000E+01
     -9.702  0.0000E+00  0.0000E+00  0.9000E+01  0.9000E+01
     -9.423  0.0000E+00  0.0000E+00  0.9000E+01  0.9000E+01
     -9.144  0.0000E+00  0.0000E+00  0.9000E+01  0.9000E+01
     -8.865  0.0000E+00  0.0000E+00  0.9000E+01  0.9000E+01
     -8.586  0.0000E+00  0.0000E+00  0.9000E+01  0.9000E+01
     -8.307  0.0000E+00  0.0000E+00  0.9000E+01  0.9000E+01
     -8.028  0.0000E+00  0.0000E+00  0.9000E+01  0.9000E+01
     -7.750  0.0000E+00  0.0000E+00  0.9000E+01  0.9000E+01
     -7.471  0.0000E+00  0.0000E+00  0.9000E+01  0.9000E+01
     -7.192  0.0000E+00  0.0000E+00  0.9000E+01  0.9000E+01
     -6.913  0.0000E+00  0.0000E+00  0.9000E+01  0.9000E+01
     -6.634  0.0000E+00  0.0000E+00  0.9000E+01  0.9000E+01
     -6.355  0.0000E+00  0.0000E+00  0.9000E+01  0.9000E+01
     -6.076  0.0000E+00  0.0000E+00  0.9000E+01  0.9000E+01
     -5.797  0.0000E+00  0.0000E+00  0.9000E+01  0.9000E+01
     -5.518  0.0000E+00  0.0000E+00  0.9000E+01  0.9000E+01
     -5.239  0.0000E+00  0.0000E+00  0.9000E+01  0.9000E+01
     -4.960  0.0000E+00  0.0000E+00  0.9000E+01  0.9000E+01
     -4.681  0.0000E+00  0.0000E+00  0.9000E+01  0.9000E+01
     -4.402  0.0000E+00  0.0000E+00  0.9000E+01  0.9000E+01
     -4.123  0.0000E+00  0.0000E+00  0.9000E+01  0.9000E+01
     -3.844  0.0000E+00  0.0000E+00  0.9000E+01  0.9000E+01
     -3.565  0.0000E+00  0.0000E+00  0.9000E+01  0.9000E+01
     -3.286  0.0000E+00  0.0000E+00  0.9000E+01  0.9000E+01
     -3.007  0.0000E+00  0.0000E+00  0.9000E+01  0.9000E+01
     -2.728  0.0000E+00  0.0000E+00  0.9000E+01  0.9000E+01
     -2.449  0.0000E+00  0.0000E+00  0.9000E+01  0.9000E+01
     -2.170  0.0000E+00  0.0000E+00  0.9000E+01  0.9000E+01
     -1.891  0.0000E+00  0.0000E+00  0.9000E+01  0.9000E+01
     -1.612  0.6856E-02  0.6856E-02  0.9000E+01  0.9000E+01
     -1.333  0.8716E-01  0.8716E-01  0.9013E+01  0.9013E+01
     -1.054  0.1113E+00  0.1113E+00  0.9041E+01  0.9041E+01
     -0.776  0.1511E+00  0.1511E+00  0.9077E+01  0.9077E+01
     -0.497  0.1884E+00  0.1884E+00  0.9125E+01  0.9125E+01
     -0.218  0.2288E+00  0.2288E+00  0.9183E+01  0.9183E+01
      0.061  0.2944E+00  0.2944E+00  0.9255E+01  0.9255E+01
      0.340  0.2816E+00  0.2816E+00  0.9337E+01  0.9337E+01
      0.619  0.3061E+00  0.3061E+00  0.9418E+01  0.9418E+01
      0.898  0.2619E+00  0.2619E+00  0.9498E+01  0.9498E+01
      1.177  0.2271E+00  0.2271E+00  0.9567E+01  0.9567E+01
      1.456  0.2173E+00  0.2173E+00  0.9627E+01  0.9627E+01
      1.735  0.2608E+00  0.2608E+00  0.9694E+01  0.9694E+01
      2.014  0.3084E+00  0.3084E+00  0.9773E+01  0.9773E+01
      2.293  0.4761E+00  0.4761E+00  0.9882E+01  0.9882E+01
      2.572  0.4797E+00  0.4797E+00  0.1002E+02  0.1002E+02
      2.851  0.5130E+00  0.5130E+00  0.1016E+02  0.1016E+02
      3.130  0.6006E+00  0.6006E+00  0.1032E+02  0.1032E+02
      3.409  0.4589E+00  0.4589E+00  0.1044E+02  0.1044E+02
      3.688  0.5655E+00  0.5655E+00  0.1059E+02  0.1059E+02
      3.967  0.1108E+01  0.1108E+01  0.1081E+02  0.1081E+02
      4.246  0.8185E+00  0.8185E+00  0.1115E+02  0.1115E+02
      4.525  0.1391E+01  0.1391E+01  0.1151E+02  0.1151E+02
      4.804  0.1888E+01  0.1888E+01  0.1194E+02  0.1194E+02
      5.083  0.2762E+01  0.2762E+01  0.1249E+02  0.1249E+02
      5.362  0.3564E+01  0.3564E+01  0.1322E+02  0.1322E+02
      5.641  0.2719E+01  0.2719E+01  0.1410E+02  0.1410E+02
      5.920  0.4346E+01  0.4346E+01  0.1524E+02  0.1524E+02
      6.199  0.5111E+01  0.5111E+01  0.1645E+02  0.1645E+02
      6.477  0.2393E+01  0.2393E+01  0.1772E+02  0.1772E+02
      6.756  0.3407E+01  0.3407E+01  0.1865E+02  0.1865E+02
      7.035  0.3012E+01  0.3012E+01  0.1980E+02  0.1980E+02
      7.314  0.4912E+01  0.4912E+01  0.2090E+02  0.2090E+02
      7.593  0.5265E+01  0.5265E+01  0.2244E+02  0.2244E+02
      7.872  0.4192E+01  0.4192E+01  0.2364E+02  0.2364E+02
      8.151  0.3313E+01  0.3313E+01  0.2463E+02  0.2463E+02
      8.430  0.1387E+01  0.1387E+01  0.2543E+02  0.2543E+02
      8.709  0.1045E+01  0.1045E+01  0.2577E+02  0.2577E+02
      8.988  0.1143E+01  0.1143E+01  0.2609E+02  0.2609E+02
      9.267  0.8310E+00  0.8310E+00  0.2635E+02  0.2635E+02
      9.546  0.8832E+00  0.8832E+00  0.2659E+02  0.2659E+02
      9.825  0.6959E+00  0.6959E+00  0.2682E+02  0.2682E+02
     10.104  0.5988E+00  0.5988E+00  0.2700E+02  0.2700E+02
     10.383  0.5481E+00  0.5481E+00  0.2716E+02  0.2716E+02
     10.662  0.4976E+00  0.4976E+00  0.2730E+02  0.2730E+02
     10.941  0.4745E+00  0.4745E+00  0.2743E+02  0.2743E+02
     11.220  0.4772E+00  0.4772E+00  0.2756E+02  0.2756E+02
     11.499  0.4657E+00  0.4657E+00  0.2770E+02  0.2770E+02
     11.778  0.3380E+00  0.3380E+00  0.2781E+02  0.2781E+02
     12.057  0.3284E+00  0.3284E+00  0.2790E+02  0.2790E+02
     12.336  0.3316E+00  0.3316E+00  0.2799E+02  0.2799E+02
     12.615  0.4414E+00  0.4414E+00  0.2809E+02  0.2809E+02
     12.894  0.8029E+00  0.8029E+00  0.2826E+02  0.2826E+02
     13.173  0.7935E+00  0.7935E+00  0.2847E+02  0.2847E+02
     13.451  0.8038E+00  0.8038E+00  0.2873E+02  0.2873E+02
     13.730  0.5879E+00  0.5879E+00  0.2891E+02  0.2891E+02
     14.009  0.5758E+00  0.5758E+00  0.2907E+02  0.2907E+02
     14.288  0.6443E+00  0.6443E+00  0.2924E+02  0.2924E+02
     14.567  0.7115E+00  0.7115E+00  0.2942E+02  0.2942E+02
     14.846  0.4640E+00  0.4640E+00  0.2959E+02  0.2959E+02
     15.125  0.6292E+00  0.6292E+00  0.2973E+02  0.2973E+02
     15.404  0.6006E+00  0.6006E+00  0.2990E+02  0.2990E+02
     15.683  0.6675E+00  0.6675E+00  0.3008E+02  0.3008E+02
     15.962  0.6746E+00  0.6746E+00  0.3027E+02  0.3027E+02
     16.241  0.7428E+00  0.7428E+00  0.3046E+02  0.3046E+02
     16.520  0.7547E+00  0.7547E+00  0.3067E+02  0.3067E+02
     16.799  0.7950E+00  0.7950E+00  0.3089E+02  0.3089E+02
     17.078  0.6706E+00  0.6706E+00  0.3109E+02  0.3109E+02
     17.357  0.5477E+00  0.5477E+00  0.3126E+02  0.3126E+02
     17.636  0.4454E+00  0.4454E+00  0.3140E+02  0.3140E+02
     17.915  0.3471E+00  0.3471E+00  0.3151E+02  0.3151E+02
     18.194  0.2984E+00  0.2984E+00  0.3160E+02  0.3160E+02
     18.473  0.2365E+00  0.2365E+00  0.3168E+02  0.3168E+02
     18.752  0.2055E+00  0.2055E+00  0.3174E+02  0.3174E+02
     19.031  0.1883E+00  0.1883E+00  0.3179E+02  0.3179E+02
     19.310  0.1799E+00  0.1799E+00  0.3184E+02  0.3184E+02
     19.589  0.1744E+00  0.1744E+00  0.3189E+02  0.3189E+02
     19.868  0.1344E+00  0.1344E+00  0.3194E+02  0.3194E+02
     20.147  0.1033E+00  0.1033E+00  0.3197E+02  0.3197E+02
     20.426  0.4420E-01  0.4420E-01  0.3199E+02  0.3199E+02
     20.704  0.1323E-01  0.1323E-01  0.3200E+02  0.3200E+02
     20.983  0.9406E-03  0.9393E-03  0.3200E+02  0.3200E+02
     21.262  0.0000E+00  0.0000E+00  0.3200E+02  0.3200E+02
     21.541  0.0000E+00  0.0000E+00  0.3200E+02  0.3200E+02
     21.820  0.0000E+00  0.0000E+00  0.3200E+02  0.3200E+02
     22.099  0.0000E+00  0.0000E+00  0.3200E+02  0.3200E+02
     22.378  0.0000E+00  0.0000E+00  0.3200E+02  0.3200E+02
     22.657  0.0000E+00  0.0000E+00  0.3200E+02  0.3200E+02
     22.936  0.0000E+00  0.0000E+00  0.3200E+02  0.3200E+02
     23.215  0.0000E+00  0.0000E+00  0.3200E+02  0.3200E+02
     23.494  0.0000E+00  0.0000E+00  0.3200E+02  0.3200E+02
     23.773  0.0000E+00  0.0000E+00  0.3200E+02  0.3200E+02
     24.052  0.0000E+00  0.0000E+00  0.3200E+02  0.3200E+02
     24.331  0.0000E+00  0.0000E+00  0.3200E+02  0.3200E+02
     24.610  0.0000E+00  0.0000E+00  0.3200E+02  0.3200E+02
     24.889  0.0000E+00  0.0000E+00  0.3200E+02  0.3200E+02
