       N       E                     dE             d eps       ncg     rms          rms(c)
DAV:   1     0.593427920528E+03    0.59343E+03   -0.31594E+04 10040   0.198E+03
DAV:   2     0.414194839123E+01   -0.58929E+03   -0.56967E+03  8536   0.613E+02
DAV:   3    -0.254454294270E+02   -0.29587E+02   -0.28024E+02  9504   0.161E+02
DAV:   4    -0.260517476262E+02   -0.60632E+00   -0.60485E+00  9184   0.226E+01
DAV:   5    -0.260678512136E+02   -0.16104E-01   -0.16103E-01 10128   0.379E+00    0.192E+01
DAV:   6    -0.281763425378E+02   -0.21085E+01   -0.61385E+01  9440   0.106E+02    0.232E+01
DAV:   7    -0.224710391034E+02    0.57053E+01   -0.21038E+01  9432   0.686E+01    0.533E+00
DAV:   8    -0.225089098559E+02   -0.37871E-01   -0.21678E+00  9264   0.263E+01    0.461E+00
DAV:   9    -0.223842540382E+02    0.12466E+00   -0.25595E-01 10176   0.116E+01    0.101E+00
DAV:  10    -0.223765451872E+02    0.77089E-02   -0.49231E-02  9504   0.232E+00    0.412E-01
DAV:  11    -0.223777317379E+02   -0.11866E-02   -0.35017E-03  9552   0.769E-01    0.136E-01
DAV:  12    -0.223777158614E+02    0.15876E-04   -0.45072E-04  9616   0.283E-01    0.462E-02
DAV:  13    -0.223777088770E+02    0.69844E-05   -0.57094E-05  9536   0.919E-02    0.215E-02
DAV:  14    -0.223777139280E+02   -0.50509E-05   -0.10755E-05  9424   0.358E-02    0.725E-03
DAV:  15    -0.223777131843E+02    0.74365E-06   -0.12647E-06 10016   0.154E-02    0.360E-03
DAV:  16    -0.223777127535E+02    0.43085E-06   -0.21866E-07  9160   0.469E-03    0.929E-04
DAV:  17    -0.223777127009E+02    0.52529E-07   -0.35864E-08  7680   0.216E-03    0.301E-04
DAV:  18    -0.223777126841E+02    0.16877E-07   -0.33485E-09  4928   0.925E-04    0.162E-04
DAV:  19    -0.223777126829E+02    0.11169E-08   -0.11164E-09  4648   0.471E-04
   1 F= -.22377713E+02 E0= -.22378207E+02  d E =-.223777E+02  mag=     0.5990
       N       E                     dE             d eps       ncg     rms          rms(c)
DAV:   1    -0.435891489432E+02   -0.21211E+02   -0.22064E+02  8320   0.210E+02    0.422E+01
DAV:   2    -0.438677753643E+02   -0.27863E+00   -0.29282E+02  9448   0.194E+02    0.380E+01
DAV:   3    -0.235832769593E+02    0.20284E+02   -0.83975E+01  9728   0.114E+02    0.126E+01
DAV:   4    -0.231788027213E+02    0.40447E+00   -0.70050E+00  9976   0.495E+01    0.917E+00
DAV:   5    -0.224927692458E+02    0.68603E+00   -0.16473E+00 10488   0.197E+01    0.190E+00
DAV:   6    -0.224571379224E+02    0.35631E-01   -0.14795E-01  8936   0.499E+00    0.102E+00
DAV:   7    -0.224538849517E+02    0.32530E-02   -0.26961E-02  9488   0.228E+00    0.939E-01
DAV:   8    -0.224592789619E+02   -0.53940E-02   -0.44908E-03 10568   0.974E-01    0.625E-01
DAV:   9    -0.224585390599E+02    0.73990E-03   -0.17286E-02 10888   0.216E+00    0.498E-01
DAV:  10    -0.224610940646E+02   -0.25550E-02   -0.28344E-03  9328   0.791E-01    0.198E-01
DAV:  11    -0.224613744047E+02   -0.28034E-03   -0.68483E-04 11136   0.377E-01    0.401E-02
DAV:  12    -0.224613829297E+02   -0.85250E-05   -0.13985E-04  9832   0.119E-01    0.533E-02
DAV:  13    -0.224614113435E+02   -0.28414E-04   -0.40062E-05 10304   0.106E-01    0.930E-03
DAV:  14    -0.224614124062E+02   -0.10627E-05   -0.34698E-06  8912   0.165E-02    0.490E-03
DAV:  15    -0.224614123990E+02    0.71868E-08   -0.30155E-07  9616   0.650E-03    0.391E-03
DAV:  16    -0.224614125687E+02   -0.16973E-06   -0.25339E-07 10152   0.837E-03    0.117E-03
DAV:  17    -0.224614125498E+02    0.18888E-07   -0.36838E-08  6520   0.219E-03    0.634E-04
DAV:  18    -0.224614125221E+02    0.27723E-07   -0.55506E-09  4456   0.136E-03    0.129E-04
DAV:  19    -0.224614125133E+02    0.88057E-08   -0.16961E-09  4328   0.562E-04
   2 F= -.22461413E+02 E0= -.22461344E+02  d E =-.836998E-01  mag=    -0.5688
       N       E                     dE             d eps       ncg     rms          rms(c)
DAV:   1    -0.249685895146E+02   -0.25072E+01   -0.25623E+01  8320   0.647E+01    0.157E+01
DAV:   2    -0.262080439431E+02   -0.12395E+01   -0.36940E+01  9312   0.799E+01    0.170E+01
DAV:   3    -0.225364111392E+02    0.36716E+01   -0.13567E+01  9376   0.454E+01    0.233E+00
DAV:   4    -0.226097939607E+02   -0.73383E-01   -0.49165E-01 10968   0.143E+01    0.483E+00
DAV:   5    -0.224892610141E+02    0.12053E+00   -0.21189E-01 10448   0.113E+01    0.850E-01
DAV:   6    -0.224875938527E+02    0.16672E-02   -0.24168E-02  8920   0.181E+00    0.264E-01
DAV:   7    -0.224874905144E+02    0.10334E-03   -0.14706E-03 10544   0.446E-01    0.103E-01
DAV:   8    -0.224875250637E+02   -0.34549E-04   -0.26892E-04  9688   0.220E-01    0.531E-02
DAV:   9    -0.224875191588E+02    0.59049E-05   -0.60637E-05  9512   0.160E-01    0.144E-02
DAV:  10    -0.224875194577E+02   -0.29887E-06   -0.57122E-06  8984   0.282E-02    0.728E-03
DAV:  11    -0.224875187391E+02    0.71853E-06   -0.11802E-06  9480   0.202E-02    0.251E-03
DAV:  12    -0.224875185983E+02    0.14083E-06   -0.10173E-07  9144   0.481E-03    0.883E-04
DAV:  13    -0.224875185642E+02    0.34142E-07   -0.10906E-08  4816   0.192E-03    0.322E-04
DAV:  14    -0.224875185487E+02    0.15429E-07   -0.54689E-09  4528   0.810E-04    0.120E-04
DAV:  15    -0.224875185511E+02   -0.24011E-08   -0.11146E-09  4432   0.477E-04
   3 F= -.22487519E+02 E0= -.22487585E+02  d E =-.109806E+00  mag=    -0.5757
       N       E                     dE             d eps       ncg     rms          rms(c)
DAV:   1    -0.231353722989E+02   -0.64785E+00   -0.12529E+01  8760   0.341E+01    0.720E+00
DAV:   2    -0.230364077023E+02    0.98965E-01   -0.42248E+00  9592   0.283E+01    0.640E+00
DAV:   3    -0.226488758418E+02    0.38753E+00   -0.18623E+00  9480   0.239E+01    0.475E+00
DAV:   4    -0.226088138410E+02    0.40062E-01   -0.65797E-01  9672   0.189E+01    0.355E+00
DAV:   5    -0.225190287896E+02    0.89785E-01   -0.18339E-01 10768   0.732E+00    0.586E-01
DAV:   6    -0.225193528515E+02   -0.32406E-03   -0.16006E-02  8504   0.133E+00    0.292E-01
DAV:   7    -0.225188644199E+02    0.48843E-03   -0.16224E-03 10160   0.595E-01    0.101E-01
DAV:   8    -0.225188478889E+02    0.16531E-04   -0.27466E-04 10616   0.228E-01    0.404E-02
DAV:   9    -0.225188612128E+02   -0.13324E-04   -0.40408E-05  8984   0.943E-02    0.172E-02
DAV:  10    -0.225188623541E+02   -0.11413E-05   -0.47107E-06 10960   0.278E-02    0.679E-03
DAV:  11    -0.225188624892E+02   -0.13504E-06   -0.75242E-07  9840   0.119E-02    0.325E-03
DAV:  12    -0.225188624474E+02    0.41813E-07   -0.12892E-07 10016   0.602E-03    0.106E-03
DAV:  13    -0.225188624386E+02    0.87148E-08   -0.22630E-08  5840   0.189E-03
   4 F= -.22518862E+02 E0= -.22518727E+02  d E =-.313439E-01  mag=    -0.5502
       N       E                     dE             d eps       ncg     rms          rms(c)
DAV:   1    -0.229488770523E+02   -0.43001E+00   -0.84492E+00  8704   0.284E+01    0.594E+00
DAV:   2    -0.228677999598E+02    0.81077E-01   -0.29344E+00  9536   0.233E+01    0.511E+00
DAV:   3    -0.225783145703E+02    0.28949E+00   -0.11562E+00  9472   0.162E+01    0.250E+00
DAV:   4    -0.226338035568E+02   -0.55489E-01   -0.42000E-01  9664   0.166E+01    0.416E+00
DAV:   5    -0.225269403907E+02    0.10686E+00   -0.23854E-01 10480   0.875E+00    0.379E-01
DAV:   6    -0.225279491096E+02   -0.10087E-02   -0.15145E-02  8416   0.116E+00    0.160E-01
DAV:   7    -0.225278766118E+02    0.72498E-04   -0.53815E-04 11608   0.335E-01    0.929E-02
DAV:   8    -0.225278481850E+02    0.28427E-04   -0.17211E-04 10368   0.228E-01    0.284E-02
DAV:   9    -0.225278628463E+02   -0.14661E-04   -0.24738E-05  9600   0.560E-02    0.220E-02
DAV:  10    -0.225278622392E+02    0.60709E-06   -0.37280E-06 10120   0.413E-02    0.581E-03
DAV:  11    -0.225278620747E+02    0.16451E-06   -0.12491E-06  9824   0.145E-02    0.271E-03
DAV:  12    -0.225278620021E+02    0.72530E-07   -0.15441E-07  9048   0.742E-03    0.865E-04
DAV:  13    -0.225278619742E+02    0.27907E-07   -0.18095E-08  5408   0.159E-03    0.298E-04
DAV:  14    -0.225278619619E+02    0.12331E-07   -0.33137E-09  4320   0.686E-04    0.172E-04
DAV:  15    -0.225278619618E+02    0.81855E-10   -0.76962E-10  4312   0.417E-04
   5 F= -.22527862E+02 E0= -.22527540E+02  d E =-.403434E-01  mag=    -0.5251
       N       E                     dE             d eps       ncg     rms          rms(c)
DAV:   1    -0.225391913656E+02   -0.11329E-01   -0.22152E-01  8728   0.466E+00    0.967E-01
DAV:   2    -0.225367457595E+02    0.24456E-02   -0.79113E-02  9536   0.383E+00    0.823E-01
DAV:   3    -0.225292026824E+02    0.75431E-02   -0.29609E-02  9496   0.242E+00    0.342E-01
DAV:   4    -0.225315394129E+02   -0.23367E-02   -0.11159E-02  9864   0.269E+00    0.843E-01
DAV:   5    -0.225280643790E+02    0.34750E-02   -0.52851E-03 10320   0.201E+00    0.809E-02
DAV:   6    -0.225280843025E+02   -0.19923E-04   -0.54458E-04 10016   0.256E-01    0.252E-02
DAV:   7    -0.225280874586E+02   -0.31561E-05   -0.27852E-05  9608   0.902E-02    0.872E-03
DAV:   8    -0.225280881326E+02   -0.67399E-06   -0.25139E-06  9752   0.168E-02    0.350E-03
DAV:   9    -0.225280881726E+02   -0.39981E-07   -0.20456E-07  9920   0.519E-03    0.135E-03
DAV:  10    -0.225280881367E+02    0.35832E-07   -0.19762E-08  6320   0.208E-03    0.544E-04
DAV:  11    -0.225280881020E+02    0.34703E-07   -0.62804E-09  4496   0.111E-03    0.232E-04
DAV:  12    -0.225280880964E+02    0.56843E-08   -0.13467E-09  4376   0.661E-04
   6 F= -.22528088E+02 E0= -.22527728E+02  d E =-.405695E-01  mag=    -0.5214
       N       E                     dE             d eps       ncg     rms          rms(c)
DAV:   1    -0.228326925537E+02   -0.30460E+00   -0.61083E+00  8912   0.243E+01    0.491E+00
DAV:   2    -0.228086881736E+02    0.24004E-01   -0.21269E+00  9544   0.217E+01    0.539E+00
DAV:   3    -0.227289550408E+02    0.79733E-01   -0.16821E+00  9568   0.211E+01    0.567E+00
DAV:   4    -0.225598046164E+02    0.16915E+00   -0.38937E-01  9640   0.149E+01    0.144E+00
DAV:   5    -0.225387091552E+02    0.21095E-01   -0.61442E-02  9872   0.299E+00    0.500E-01
DAV:   6    -0.225377889232E+02    0.92023E-03   -0.72266E-03 10064   0.128E+00    0.133E-01
DAV:   7    -0.225377224069E+02    0.66516E-04   -0.74841E-04  9656   0.349E-01    0.490E-02
DAV:   8    -0.225377380050E+02   -0.15598E-04   -0.68367E-05  9176   0.101E-01    0.244E-02
DAV:   9    -0.225377433022E+02   -0.52972E-05   -0.73961E-06 10688   0.383E-02    0.135E-02
DAV:  10    -0.225377442234E+02   -0.92125E-06   -0.23331E-06 10432   0.245E-02    0.422E-03
DAV:  11    -0.225377445677E+02   -0.34430E-06   -0.39315E-07 10120   0.912E-03    0.261E-03
DAV:  12    -0.225377445712E+02   -0.34343E-08   -0.15045E-07  9944   0.670E-03    0.624E-04
DAV:  13    -0.225377445832E+02   -0.12045E-07   -0.17485E-08  5464   0.182E-03    0.338E-04
DAV:  14    -0.225377445845E+02   -0.12806E-08   -0.49490E-09  4352   0.104E-03
   7 F= -.22537745E+02 E0= -.22537342E+02  d E =-.965649E-02  mag=    -0.5371
       N       E                     dE             d eps       ncg     rms          rms(c)
DAV:   1    -0.226958149521E+02   -0.15807E+00   -0.32854E+00  8952   0.176E+01    0.357E+00
DAV:   2    -0.226786964283E+02    0.17119E-01   -0.10628E+00  9520   0.155E+01    0.389E+00
DAV:   3    -0.226385286903E+02    0.40168E-01   -0.84358E-01  9632   0.154E+01    0.427E+00
DAV:   4    -0.225517163458E+02    0.86812E-01   -0.23676E-01  9616   0.112E+01    0.110E+00
DAV:   5    -0.225402185559E+02    0.11498E-01   -0.32770E-02 10184   0.229E+00    0.378E-01
DAV:   6    -0.225396811655E+02    0.53739E-03   -0.40175E-03  9880   0.928E-01    0.111E-01
DAV:   7    -0.225396399196E+02    0.41246E-04   -0.41585E-04 10112   0.261E-01    0.385E-02
DAV:   8    -0.225396510882E+02   -0.11169E-04   -0.45199E-05  9208   0.818E-02    0.201E-02
DAV:   9    -0.225396544411E+02   -0.33529E-05   -0.43661E-06 10760   0.307E-02    0.114E-02
DAV:  10    -0.225396549119E+02   -0.47083E-06   -0.21531E-06 10264   0.229E-02    0.322E-03
DAV:  11    -0.225396551071E+02   -0.19512E-06   -0.25382E-07  9456   0.651E-03    0.177E-03
DAV:  12    -0.225396551230E+02   -0.15947E-07   -0.70056E-08  8456   0.413E-03    0.410E-04
DAV:  13    -0.225396551352E+02   -0.12180E-07   -0.79583E-09  4312   0.128E-03    0.195E-04
DAV:  14    -0.225396551370E+02   -0.17826E-08   -0.25135E-09  4304   0.645E-04
   8 F= -.22539655E+02 E0= -.22539236E+02  d E =-.115670E-01  mag=    -0.5296
       N       E                     dE             d eps       ncg     rms          rms(c)
DAV:   1    -0.231206626484E+02   -0.58101E+00   -0.81513E+00  8816   0.324E+01    0.740E+00
DAV:   2    -0.232190657856E+02   -0.98403E-01   -0.67920E+00  9384   0.349E+01    0.726E+00
DAV:   3    -0.225767077256E+02    0.64236E+00   -0.23333E+00  9416   0.216E+01    0.229E+00
DAV:   4    -0.226097433240E+02   -0.33036E-01   -0.35356E-01  9520   0.139E+01    0.345E+00
DAV:   5    -0.225405346154E+02    0.69209E-01   -0.16394E-01 10464   0.672E+00    0.465E-01
DAV:   6    -0.225410494644E+02   -0.51485E-03   -0.10322E-02  8488   0.102E+00    0.216E-01
DAV:   7    -0.225409563635E+02    0.93101E-04   -0.57385E-04 11152   0.334E-01    0.105E-01
DAV:   8    -0.225409330344E+02    0.23329E-04   -0.17520E-04 11256   0.229E-01    0.292E-02
DAV:   9    -0.225409399838E+02   -0.69494E-05   -0.25675E-05  8968   0.664E-02    0.174E-02
DAV:  10    -0.225409396879E+02    0.29591E-06   -0.29119E-06 11576   0.275E-02    0.531E-03
DAV:  11    -0.225409394512E+02    0.23671E-06   -0.70971E-07  9368   0.108E-02    0.154E-03
DAV:  12    -0.225409393789E+02    0.72301E-07   -0.70764E-08  8048   0.453E-03    0.713E-04
DAV:  13    -0.225409393446E+02    0.34323E-07   -0.89659E-09  4440   0.176E-03    0.214E-04
DAV:  14    -0.225409393310E+02    0.13555E-07   -0.40103E-09  4232   0.633E-04    0.814E-05
DAV:  15    -0.225409393272E+02    0.37635E-08   -0.55648E-10  4200   0.308E-04
   9 F= -.22540939E+02 E0= -.22540381E+02  d E =-.128419E-02  mag=    -0.5214
       N       E                     dE             d eps       ncg     rms          rms(c)
DAV:   1    -0.226325476600E+02   -0.91608E-01   -0.12642E+00  8792   0.131E+01    0.292E+00
DAV:   2    -0.226494555113E+02   -0.16908E-01   -0.10992E+00  9456   0.137E+01    0.286E+00
DAV:   3    -0.225463211901E+02    0.10313E+00   -0.35139E-01  9424   0.790E+00    0.640E-01
DAV:   4    -0.225559796516E+02   -0.96585E-02   -0.49084E-02 10744   0.510E+00    0.167E+00
DAV:   5    -0.225417673028E+02    0.14212E-01   -0.34481E-02 10456   0.371E+00    0.123E-01
DAV:   6    -0.225418504186E+02   -0.83116E-04   -0.19656E-03  8688   0.453E-01    0.545E-02
DAV:   7    -0.225418424888E+02    0.79297E-05   -0.76739E-05 11320   0.142E-01    0.242E-02
DAV:   8    -0.225418470295E+02   -0.45407E-05   -0.14271E-05  8936   0.450E-02    0.122E-02
DAV:   9    -0.225418479525E+02   -0.92295E-06   -0.23370E-06 11280   0.250E-02    0.370E-03
DAV:  10    -0.225418482720E+02   -0.31953E-06   -0.51244E-07  8936   0.808E-03    0.171E-03
DAV:  11    -0.225418483506E+02   -0.78528E-07   -0.34735E-08  7080   0.282E-03    0.607E-04
DAV:  12    -0.225418483929E+02   -0.42310E-07   -0.60452E-09  4360   0.117E-03    0.291E-04
DAV:  13    -0.225418484042E+02   -0.11378E-07   -0.21767E-09  4240   0.607E-04    0.678E-05
DAV:  14    -0.225418484110E+02   -0.67139E-08   -0.66185E-10  4208   0.324E-04
  10 F= -.22541848E+02 E0= -.22541351E+02  d E =-.219327E-02  mag=    -0.5266
       N       E                     dE             d eps       ncg     rms          rms(c)
DAV:   1    -0.225500431608E+02   -0.81948E-02   -0.17404E-01  8768   0.388E+00    0.820E-01
DAV:   2    -0.225485374549E+02    0.15057E-02   -0.43487E-02  9584   0.334E+00    0.956E-01
DAV:   3    -0.225472738975E+02    0.12636E-02   -0.35970E-02  9720   0.444E+00    0.964E-01
DAV:   4    -0.225428195744E+02    0.44543E-02   -0.15929E-02  9672   0.273E+00    0.261E-01
DAV:   5    -0.225422673723E+02    0.55220E-03   -0.17651E-03 10416   0.605E-01    0.113E-01
DAV:   6    -0.225422306088E+02    0.36764E-04   -0.28728E-04 10336   0.260E-01    0.316E-02
DAV:   7    -0.225422302053E+02    0.40346E-06   -0.46071E-05  9568   0.755E-02    0.109E-02
DAV:   8    -0.225422310970E+02   -0.89166E-06   -0.39846E-06  9152   0.234E-02    0.452E-03
DAV:   9    -0.225422313282E+02   -0.23126E-06   -0.34030E-07 10456   0.644E-03    0.179E-03
DAV:  10    -0.225422312962E+02    0.32009E-07   -0.57640E-08  8104   0.348E-03    0.529E-04
DAV:  11    -0.225422312851E+02    0.11089E-07   -0.93978E-09  4376   0.137E-03    0.236E-04
DAV:  12    -0.225422312804E+02    0.47476E-08   -0.22050E-09  4272   0.682E-04
  11 F= -.22542231E+02 E0= -.22541653E+02  d E =-.382869E-03  mag=    -0.5067
       N       E                     dE             d eps       ncg     rms          rms(c)
DAV:   1    -0.225473314040E+02   -0.51001E-02   -0.11109E-01  8752   0.310E+00    0.665E-01
DAV:   2    -0.225465784908E+02    0.75291E-03   -0.29109E-02  9592   0.275E+00    0.801E-01
DAV:   3    -0.225456937701E+02    0.88472E-03   -0.24999E-02  9720   0.370E+00    0.797E-01
DAV:   4    -0.225426675496E+02    0.30262E-02   -0.10444E-02  9720   0.222E+00    0.205E-01
DAV:   5    -0.225423415400E+02    0.32601E-03   -0.11407E-03 10248   0.464E-01    0.102E-01
DAV:   6    -0.225423199286E+02    0.21611E-04   -0.19986E-04 10384   0.225E-01    0.332E-02
DAV:   7    -0.225423200783E+02   -0.14968E-06   -0.38772E-05  9776   0.723E-02    0.104E-02
DAV:   8    -0.225423211483E+02   -0.10700E-05   -0.42950E-06  9144   0.229E-02    0.461E-03
DAV:   9    -0.225423214136E+02   -0.26533E-06   -0.45565E-07 10192   0.788E-03    0.215E-03
DAV:  10    -0.225423213962E+02    0.17417E-07   -0.91071E-08  8416   0.395E-03    0.743E-04
DAV:  11    -0.225423213858E+02    0.10359E-07   -0.19978E-08  5368   0.177E-03    0.330E-04
DAV:  12    -0.225423213844E+02    0.14115E-08   -0.43064E-09  4224   0.866E-04
  12 F= -.22542321E+02 E0= -.22541682E+02  d E =-.472973E-03  mag=    -0.4863
       N       E                     dE             d eps       ncg     rms          rms(c)
DAV:   1    -0.225586417263E+02   -0.16320E-01   -0.18674E-01  8416   0.546E+00    0.125E+00
DAV:   2    -0.225644396077E+02   -0.57979E-02   -0.22492E-01  9384   0.619E+00    0.132E+00
DAV:   3    -0.225437434826E+02    0.20696E-01   -0.75850E-02  9408   0.392E+00    0.534E-01
DAV:   4    -0.225430118845E+02    0.73160E-03   -0.83361E-03  9240   0.210E+00    0.303E-01
DAV:   5    -0.225423667649E+02    0.64512E-03   -0.12685E-03 11208   0.685E-01    0.706E-02
DAV:   6    -0.225423550670E+02    0.11698E-04   -0.12636E-04  9216   0.136E-01    0.381E-02
DAV:   7    -0.225423489700E+02    0.60971E-05   -0.28193E-05 10976   0.785E-02    0.954E-03
DAV:   8    -0.225423497624E+02   -0.79247E-06   -0.38799E-06  9208   0.234E-02    0.394E-03
DAV:   9    -0.225423499883E+02   -0.22586E-06   -0.41146E-07 10472   0.935E-03    0.143E-03
DAV:  10    -0.225423500765E+02   -0.88241E-07   -0.48803E-08  7776   0.246E-03    0.913E-04
DAV:  11    -0.225423501049E+02   -0.28349E-07   -0.90038E-09  4368   0.165E-03    0.322E-04
DAV:  12    -0.225423501159E+02   -0.11061E-07   -0.31001E-09  4216   0.760E-04    0.225E-04
DAV:  13    -0.225423501202E+02   -0.42673E-08   -0.19269E-09  4224   0.419E-04
  13 F= -.22542350E+02 E0= -.22541674E+02  d E =-.287358E-04  mag=    -0.4748
       N       E                     dE             d eps       ncg     rms          rms(c)
DAV:   1    -0.225452184251E+02   -0.28683E-02   -0.32700E-02  8416   0.228E+00    0.522E-01
DAV:   2    -0.225461844504E+02   -0.96603E-03   -0.38185E-02  9368   0.258E+00    0.550E-01
DAV:   3    -0.225425709665E+02    0.36135E-02   -0.12742E-02  9392   0.158E+00    0.190E-01
DAV:   4    -0.225425208078E+02    0.50159E-04   -0.13417E-03  9352   0.814E-01    0.146E-01
DAV:   5    -0.225423826899E+02    0.13812E-03   -0.25624E-04 11248   0.347E-01    0.319E-02
DAV:   6    -0.225423817504E+02    0.93947E-06   -0.26300E-05  9088   0.616E-02    0.199E-02
DAV:   7    -0.225423800280E+02    0.17224E-05   -0.64825E-06 11184   0.416E-02    0.428E-03
DAV:   8    -0.225423801778E+02   -0.14978E-06   -0.85644E-07  9344   0.994E-03    0.202E-03
DAV:   9    -0.225423801337E+02    0.44169E-07   -0.71067E-08  8664   0.397E-03    0.679E-04
DAV:  10    -0.225423801118E+02    0.21875E-07   -0.12413E-08  4520   0.144E-03    0.539E-04
DAV:  11    -0.225423801024E+02    0.93642E-08   -0.42312E-09  4208   0.105E-03
  14 F= -.22542380E+02 E0= -.22541719E+02  d E =-.587180E-04  mag=    -0.4799
       N       E                     dE             d eps       ncg     rms          rms(c)
DAV:   1    -0.225435077463E+02   -0.11276E-02   -0.30093E-02  8816   0.148E+00    0.274E-01
DAV:   2    -0.225427823664E+02    0.72538E-03   -0.16021E-03  9600   0.708E-01    0.170E-01
DAV:   3    -0.225430609359E+02   -0.27857E-03   -0.23145E-03 10152   0.113E+00    0.351E-01
DAV:   4    -0.225425586657E+02    0.50227E-03   -0.19816E-03 10088   0.108E+00    0.127E-01
DAV:   5    -0.225424364340E+02    0.12223E-03   -0.36711E-04 10008   0.311E-01    0.145E-02
DAV:   6    -0.225424377392E+02   -0.13052E-05   -0.35819E-05  8528   0.743E-02    0.771E-03
DAV:   7    -0.225424375473E+02    0.19188E-06   -0.19773E-06 10792   0.202E-02    0.404E-03
DAV:   8    -0.225424376318E+02   -0.84463E-07   -0.32632E-07 10320   0.682E-03    0.204E-03
DAV:   9    -0.225424376446E+02   -0.12786E-07   -0.73759E-08  8768   0.377E-03    0.107E-03
DAV:  10    -0.225424376338E+02    0.10730E-07   -0.23701E-08  5816   0.171E-03    0.383E-04
DAV:  11    -0.225424376320E+02    0.18754E-08   -0.57243E-09  4376   0.923E-04
  15 F= -.22542438E+02 E0= -.22541758E+02  d E =-.575295E-04  mag=    -0.4737
       N       E                     dE             d eps       ncg     rms          rms(c)
DAV:   1    -0.225521678935E+02   -0.97303E-02   -0.27146E-01  8792   0.444E+00    0.826E-01
DAV:   2    -0.225455788112E+02    0.65891E-02   -0.14677E-02  9608   0.208E+00    0.501E-01
DAV:   3    -0.225477579566E+02   -0.21791E-02   -0.19751E-02 10128   0.320E+00    0.102E+00
DAV:   4    -0.225436898623E+02    0.40681E-02   -0.17022E-02 10104   0.315E+00    0.404E-01
DAV:   5    -0.225424993724E+02    0.11905E-02   -0.35186E-03 10056   0.973E-01    0.506E-02
DAV:   6    -0.225425169961E+02   -0.17624E-04   -0.35422E-04  8480   0.233E-01    0.283E-02
DAV:   7    -0.225425178852E+02   -0.88913E-06   -0.22539E-05 10752   0.679E-02    0.174E-02
DAV:   8    -0.225425200653E+02   -0.21801E-05   -0.54788E-06 10360   0.292E-02    0.116E-02
DAV:   9    -0.225425208686E+02   -0.80335E-06   -0.27944E-06 10680   0.232E-02    0.746E-03
DAV:  10    -0.225425210722E+02   -0.20356E-06   -0.18990E-06 10464   0.172E-02    0.317E-03
DAV:  11    -0.225425212607E+02   -0.18852E-06   -0.57691E-07 10336   0.897E-03    0.189E-03
DAV:  12    -0.225425213131E+02   -0.52376E-07   -0.18548E-07  9400   0.552E-03    0.858E-04
DAV:  13    -0.225425213266E+02   -0.13502E-07   -0.10912E-07  8416   0.416E-03    0.321E-04
DAV:  14    -0.225425213374E+02   -0.10765E-07   -0.17329E-08  5232   0.141E-03    0.138E-04
DAV:  15    -0.225425213386E+02   -0.12551E-08   -0.24160E-09  4160   0.525E-04
  16 F= -.22542521E+02 E0= -.22541777E+02  d E =-.141236E-03  mag=    -0.4409
       N       E                     dE             d eps       ncg     rms          rms(c)
DAV:   1    -0.225463294990E+02   -0.38082E-02   -0.70519E-02  8792   0.269E+00    0.587E-01
DAV:   2    -0.225461872992E+02    0.14220E-03   -0.31063E-02  9480   0.249E+00    0.614E-01
DAV:   3    -0.225445469336E+02    0.16404E-02   -0.17805E-02  9656   0.277E+00    0.647E-01
DAV:   4    -0.225428002314E+02    0.17467E-02   -0.78601E-03  9088   0.186E+00    0.179E-01
DAV:   5    -0.225425816247E+02    0.21861E-03   -0.72540E-04 10088   0.387E-01    0.879E-02
DAV:   6    -0.225425725849E+02    0.90398E-05   -0.13921E-04 10376   0.183E-01    0.403E-02
DAV:   7    -0.225425841458E+02   -0.11561E-04   -0.53262E-05 10400   0.972E-02    0.235E-02
DAV:   8    -0.225425911044E+02   -0.69586E-05   -0.16286E-05 10424   0.434E-02    0.187E-02
DAV:   9    -0.225425979200E+02   -0.68157E-05   -0.19034E-05 10000   0.582E-02    0.176E-02
DAV:  10    -0.225426058115E+02   -0.78915E-05   -0.46445E-05 10304   0.929E-02    0.147E-02
DAV:  11    -0.225426142095E+02   -0.83980E-05   -0.71850E-05 10128   0.109E-01    0.143E-02
DAV:  12    -0.225426111411E+02    0.30684E-05   -0.33622E-05  9560   0.900E-02    0.139E-02
DAV:  13    -0.225426028918E+02    0.82493E-05   -0.29795E-05 10368   0.714E-02    0.152E-02
DAV:  14    -0.225426147790E+02   -0.11887E-04   -0.19443E-03 10120   0.650E-01    0.485E-02
DAV:  15    -0.225426297712E+02   -0.14992E-04   -0.62016E-04  9816   0.392E-01    0.306E-02
DAV:  16    -0.225426329353E+02   -0.31640E-05   -0.25346E-05  9344   0.592E-02    0.199E-02
DAV:  17    -0.225426380742E+02   -0.51389E-05   -0.43369E-06  9648   0.275E-02    0.172E-02
DAV:  18    -0.225425803465E+02    0.57728E-04   -0.41125E-04 10056   0.296E-01    0.220E-02
DAV:  19    -0.225425876238E+02   -0.72774E-05   -0.92102E-05  9968   0.996E-02    0.230E-02
DAV:  20    -0.225425345642E+02    0.53060E-04   -0.23787E-04 10072   0.222E-01    0.414E-02
DAV:  21    -0.225425941127E+02   -0.59548E-04   -0.26520E-04  9928   0.267E-01    0.265E-02
DAV:  22    -0.225426005865E+02   -0.64738E-05   -0.20480E-05  9576   0.442E-02    0.167E-02
DAV:  23    -0.225426056964E+02   -0.51099E-05   -0.84771E-06 10352   0.411E-02    0.150E-02
DAV:  24    -0.225426128846E+02   -0.71881E-05   -0.45889E-05 10224   0.949E-02    0.136E-02
DAV:  25    -0.225426217333E+02   -0.88487E-05   -0.55706E-05 10248   0.962E-02    0.142E-02
DAV:  26    -0.225426313371E+02   -0.96039E-05   -0.30517E-05 10072   0.676E-02    0.159E-02
DAV:  27    -0.225426386499E+02   -0.73127E-05   -0.12350E-05 10176   0.420E-02    0.176E-02
DAV:  28    -0.225426389020E+02   -0.25211E-06   -0.15776E-06  8440   0.152E-02    0.175E-02
DAV:  29    -0.225426407141E+02   -0.18121E-05   -0.85300E-07 10200   0.134E-02    0.183E-02
DAV:  30    -0.225426363237E+02    0.43903E-05   -0.33551E-06 10040   0.275E-02    0.176E-02
DAV:  31    -0.225426189616E+02    0.17362E-04   -0.57933E-05 10200   0.107E-01    0.162E-02
DAV:  32    -0.225426046260E+02    0.14336E-04   -0.80574E-05 10288   0.117E-01    0.152E-02
DAV:  33    -0.225426030986E+02    0.15274E-05   -0.27566E-05  9992   0.604E-02    0.144E-02
DAV:  34    -0.225425972846E+02    0.58140E-05   -0.19619E-05 10024   0.592E-02    0.162E-02
DAV:  35    -0.225425967041E+02    0.58054E-06   -0.56987E-06 10216   0.238E-02    0.168E-02
DAV:  36    -0.225425948888E+02    0.18153E-05   -0.17097E-06 10416   0.166E-02    0.177E-02
DAV:  37    -0.225425956811E+02   -0.79231E-06   -0.26958E-07  7936   0.700E-03    0.177E-02
DAV:  38    -0.225425942465E+02    0.14346E-05   -0.50290E-07  9936   0.108E-02    0.181E-02
DAV:  39    -0.225425993151E+02   -0.50686E-05   -0.80529E-06 10040   0.429E-02    0.165E-02
DAV:  40    -0.225426082516E+02   -0.89365E-05   -0.86404E-05 10192   0.133E-01    0.146E-02
DAV:  41    -0.225426194427E+02   -0.11191E-04   -0.11488E-04 10248   0.139E-01    0.158E-02
DAV:  42    -0.225426354951E+02   -0.16052E-04   -0.69955E-05 10096   0.103E-01    0.187E-02
DAV:  43    -0.225426506514E+02   -0.15156E-04   -0.35255E-05  9888   0.729E-02    0.220E-02
DAV:  44    -0.225426574956E+02   -0.68441E-05   -0.74953E-06 10032   0.270E-02    0.231E-02
DAV:  45    -0.225426552240E+02    0.22715E-05   -0.12467E-06  8784   0.161E-02    0.227E-02
DAV:  46    -0.225426546584E+02    0.56568E-06   -0.12639E-07  9128   0.354E-03    0.227E-02
DAV:  47    -0.225426525802E+02    0.20782E-05   -0.54771E-07 10168   0.103E-02    0.222E-02
DAV:  48    -0.225426512386E+02    0.13416E-05   -0.42997E-07 10288   0.799E-03    0.217E-02
DAV:  49    -0.225426513435E+02   -0.10488E-06   -0.41496E-08  6272   0.211E-03    0.217E-02
DAV:  50    -0.225426492430E+02    0.21004E-05   -0.61925E-07 10272   0.111E-02    0.211E-02
DAV:  51    -0.225426472151E+02    0.20279E-05   -0.82880E-07 10272   0.116E-02    0.206E-02
DAV:  52    -0.225426529747E+02   -0.57596E-05   -0.44574E-06 10016   0.310E-02    0.219E-02
DAV:  53    -0.225426460702E+02    0.69045E-05   -0.56466E-06 10008   0.363E-02    0.203E-02
DAV:  54    -0.225426301234E+02    0.15947E-04   -0.39254E-05 10240   0.863E-02    0.180E-02
DAV:  55    -0.225426317581E+02   -0.16347E-05   -0.50888E-06  9240   0.210E-02    0.165E-02
DAV:  56    -0.225426319232E+02   -0.16512E-06   -0.25982E-07  9096   0.516E-03    0.158E-02
DAV:  57    -0.225426257455E+02    0.61777E-05   -0.93049E-06 10184   0.433E-02    0.148E-02
DAV:  58    -0.225426189287E+02    0.68168E-05   -0.17286E-05 10256   0.545E-02    0.139E-02
DAV:  59    -0.225426147518E+02    0.41770E-05   -0.12543E-05 10112   0.442E-02    0.133E-02
DAV:  60    -0.225426098314E+02    0.49203E-05   -0.13076E-05 10096   0.481E-02
  17 F= -.22542610E+02 E0= -.22541813E+02  d E =-.884928E-04  mag=    -0.3794
       N       E                     dE             d eps       ncg     rms          rms(c)
DAV:   1    -0.225767814463E+02   -0.34167E-01   -0.63845E-01  8784   0.807E+00    0.176E+00
DAV:   2    -0.225758929266E+02    0.88852E-03   -0.28914E-01  9448   0.743E+00    0.184E+00
DAV:   3    -0.225599906915E+02    0.15902E-01   -0.15883E-01  9640   0.823E+00    0.189E+00
DAV:   4    -0.225449743923E+02    0.15016E-01   -0.78844E-02  9184   0.520E+00    0.563E-01
DAV:   5    -0.225428491077E+02    0.21253E-02   -0.65807E-03 10184   0.126E+00    0.269E-01
DAV:   6    -0.225428803345E+02   -0.31227E-04   -0.11611E-03 10224   0.480E-01    0.178E-01
DAV:   7    -0.225432914393E+02   -0.41110E-03   -0.11349E-03 10336   0.454E-01    0.178E-01
DAV:   8    -0.225430850493E+02    0.20639E-03   -0.24988E-04  9288   0.238E-01    0.162E-01
DAV:   9    -0.225427645788E+02    0.32047E-03   -0.42909E-04 10288   0.280E-01    0.154E-01
DAV:  10    -0.225415533303E+02    0.12112E-02   -0.38214E-03 10184   0.867E-01    0.209E-01
DAV:  11    -0.225435377802E+02   -0.19844E-02   -0.24199E-02 10112   0.245E+00    0.144E-01
DAV:  12    -0.225441545345E+02   -0.61675E-03   -0.38842E-03  9880   0.581E-01    0.162E-01
DAV:  13    -0.225442994140E+02   -0.14488E-03   -0.19316E-04  8968   0.159E-01    0.127E-01
DAV:  14    -0.225443210010E+02   -0.21587E-04   -0.96259E-05 10368   0.116E-01    0.838E-02
DAV:  15    -0.225443234559E+02   -0.24548E-05   -0.11414E-04 11056   0.115E-01    0.276E-02
DAV:  16    -0.225442967878E+02    0.26668E-04   -0.14424E-04 10088   0.165E-01    0.540E-02
DAV:  17    -0.225443189274E+02   -0.22140E-04   -0.20011E-04 10144   0.187E-01    0.119E-02
DAV:  18    -0.225443233919E+02   -0.44645E-05   -0.16152E-05  9600   0.337E-02    0.145E-02
DAV:  19    -0.225443254759E+02   -0.20840E-05   -0.42703E-06  9632   0.272E-02    0.475E-03
DAV:  20    -0.225443254777E+02   -0.18281E-08   -0.29138E-07  8992   0.574E-03    0.341E-03
DAV:  21    -0.225443253686E+02    0.10911E-06   -0.14325E-06 10168   0.154E-02    0.320E-03
DAV:  22    -0.225443255173E+02   -0.14870E-06   -0.46678E-07  9888   0.964E-03    0.659E-04
DAV:  23    -0.225443255084E+02    0.88949E-08   -0.69706E-08  7368   0.405E-03
  18 F= -.22544326E+02 E0= -.22544662E+02  d E =-.180417E-02  mag=    -0.0798
       N       E                     dE             d eps       ncg     rms          rms(c)
DAV:   1    -0.226827901555E+02   -0.13846E+00   -0.25775E+00  8736   0.162E+01    0.350E+00
DAV:   2    -0.226833826098E+02   -0.59245E-03   -0.11786E+00  9408   0.150E+01    0.355E+00
DAV:   3    -0.226176578144E+02    0.65725E-01   -0.69502E-01  9608   0.178E+01    0.381E+00
DAV:   4    -0.225561200008E+02    0.61538E-01   -0.42053E-01  9328   0.102E+01    0.115E+00
DAV:   5    -0.225456076007E+02    0.10512E-01   -0.31155E-02 10448   0.289E+00    0.273E-01
DAV:   6    -0.225452107790E+02    0.39682E-03   -0.39691E-03  8968   0.738E-01    0.740E-02
DAV:   7    -0.225452418176E+02   -0.31039E-04   -0.23217E-04 10496   0.165E-01    0.373E-02
DAV:   8    -0.225452499064E+02   -0.80887E-05   -0.38247E-05 10184   0.624E-02    0.234E-02
DAV:   9    -0.225452564920E+02   -0.65856E-05   -0.90283E-06 10608   0.352E-02    0.145E-02
DAV:  10    -0.225452595106E+02   -0.30187E-05   -0.68049E-06 11304   0.288E-02    0.128E-02
DAV:  11    -0.225452617206E+02   -0.22099E-05   -0.71486E-06 11064   0.302E-02    0.855E-03
DAV:  12    -0.225452636855E+02   -0.19649E-05   -0.90374E-06 10976   0.351E-02    0.541E-03
DAV:  13    -0.225452648782E+02   -0.11927E-05   -0.15234E-05 11064   0.461E-02    0.264E-03
DAV:  14    -0.225452660715E+02   -0.11933E-05   -0.18469E-06  8848   0.129E-02    0.230E-03
DAV:  15    -0.225452662810E+02   -0.20951E-06   -0.61896E-07 11608   0.872E-03    0.156E-03
DAV:  16    -0.225452661551E+02    0.12591E-06   -0.45209E-06 11184   0.263E-02    0.183E-03
DAV:  17    -0.225452665344E+02   -0.37931E-06   -0.35414E-07  8368   0.806E-03    0.541E-04
DAV:  18    -0.225452664930E+02    0.41409E-07   -0.61363E-07 10768   0.103E-02    0.819E-04
DAV:  19    -0.225452665244E+02   -0.31428E-07   -0.39149E-07 10696   0.927E-03    0.660E-04
DAV:  20    -0.225452665425E+02   -0.18077E-07   -0.21088E-08  4840   0.245E-03    0.133E-04
DAV:  21    -0.225452665435E+02   -0.99317E-09   -0.38849E-09  4224   0.494E-04
  19 F= -.22545267E+02 E0= -.22545819E+02  d E =-.274520E-02  mag=    -0.0002
       N       E                     dE             d eps       ncg     rms          rms(c)
DAV:   1    -0.225502880659E+02   -0.50215E-02   -0.94184E-02  8744   0.314E+00    0.645E-01
DAV:   2    -0.225496174411E+02    0.67062E-03   -0.40054E-02  9472   0.270E+00    0.582E-01
DAV:   3    -0.225469080340E+02    0.27094E-02   -0.20459E-02  9552   0.222E+00    0.524E-01
DAV:   4    -0.225457901019E+02    0.11179E-02   -0.89982E-03  8912   0.191E+00    0.232E-01
DAV:   5    -0.225453247263E+02    0.46538E-03   -0.11550E-03 11440   0.530E-01    0.380E-02
DAV:   6    -0.225453134351E+02    0.11291E-04   -0.10762E-04  8864   0.123E-01    0.878E-03
DAV:   7    -0.225453137539E+02   -0.31880E-06   -0.40050E-06  9848   0.290E-02    0.323E-03
DAV:   8    -0.225453140738E+02   -0.31989E-06   -0.33000E-07  9680   0.609E-03    0.859E-04
DAV:   9    -0.225453141048E+02   -0.31048E-07   -0.27338E-08  7264   0.205E-03    0.256E-04
DAV:  10    -0.225453141177E+02   -0.12882E-07   -0.37961E-09  4488   0.821E-04    0.881E-05
DAV:  11    -0.225453141185E+02   -0.82036E-09   -0.99074E-10  4360   0.381E-04
  20 F= -.22545314E+02 E0= -.22545855E+02  d E =-.279278E-02  mag=    -0.0001
       N       E                     dE             d eps       ncg     rms          rms(c)
DAV:   1    -0.225500537254E+02   -0.47396E-02   -0.41903E-02  8320   0.281E+00    0.654E-01
DAV:   2    -0.225519013330E+02   -0.18476E-02   -0.65339E-02  9344   0.328E+00    0.685E-01
DAV:   3    -0.225463159477E+02    0.55854E-02   -0.23569E-02  9360   0.217E+00    0.355E-01
DAV:   4    -0.225457546264E+02    0.56132E-03   -0.32941E-03  8896   0.110E+00    0.780E-02
DAV:   5    -0.225456895081E+02    0.65118E-04   -0.17936E-04  9104   0.138E-01    0.242E-02
DAV:   6    -0.225456846833E+02    0.48249E-05   -0.15747E-05  9736   0.480E-02    0.423E-03
DAV:   7    -0.225456850397E+02   -0.35646E-06   -0.12036E-06  8824   0.122E-02    0.161E-03
DAV:   8    -0.225456851585E+02   -0.11875E-06   -0.83408E-08  9200   0.425E-03    0.426E-04
DAV:   9    -0.225456852165E+02   -0.58073E-07   -0.84495E-09  4712   0.130E-03    0.114E-04
DAV:  10    -0.225456852256E+02   -0.90822E-08   -0.14960E-09  4304   0.559E-04
  21 F= -.22545685E+02 E0= -.22546229E+02  d E =-.371107E-03  mag=    -0.0001
       N       E                     dE             d eps       ncg     rms          rms(c)
DAV:   1    -0.225855951481E+02   -0.39910E-01   -0.37632E-01  8320   0.843E+00    0.197E+00
DAV:   2    -0.226029802236E+02   -0.17385E-01   -0.59848E-01  9344   0.985E+00    0.207E+00
DAV:   3    -0.225518593561E+02    0.51121E-01   -0.21233E-01  9376   0.645E+00    0.103E+00
DAV:   4    -0.225468508682E+02    0.50085E-02   -0.28275E-02  8944   0.351E+00    0.228E-01
DAV:   5    -0.225462956609E+02    0.55521E-03   -0.15785E-03  9008   0.391E-01    0.791E-02
DAV:   6    -0.225462424937E+02    0.53167E-04   -0.14655E-04  9904   0.151E-01    0.135E-02
DAV:   7    -0.225462427571E+02   -0.26344E-06   -0.13256E-05  8872   0.445E-02    0.381E-03
DAV:   8    -0.225462430186E+02   -0.26147E-06   -0.75870E-07  9896   0.967E-03    0.927E-04
DAV:   9    -0.225462431727E+02   -0.15414E-06   -0.37542E-08  7616   0.208E-03    0.296E-04
DAV:  10    -0.225462432045E+02   -0.31747E-07   -0.28406E-09  4544   0.732E-04    0.666E-05
DAV:  11    -0.225462432079E+02   -0.34070E-08   -0.86554E-10  4304   0.405E-04
  22 F= -.22546243E+02 E0= -.22546795E+02  d E =-.929089E-03  mag=    -0.0000
       N       E                     dE             d eps       ncg     rms          rms(c)
DAV:   1    -0.225473842525E+02   -0.11410E-02   -0.10811E-02  8320   0.142E+00    0.332E-01
DAV:   2    -0.225478706153E+02   -0.48636E-03   -0.16921E-02  9344   0.167E+00    0.350E-01
DAV:   3    -0.225464165265E+02    0.14541E-02   -0.61440E-03  9360   0.111E+00    0.181E-01
DAV:   4    -0.225462731605E+02    0.14337E-03   -0.85560E-04  8896   0.544E-01    0.400E-02
DAV:   5    -0.225462563469E+02    0.16814E-04   -0.46351E-05  9088   0.710E-02    0.120E-02
DAV:   6    -0.225462552265E+02    0.11204E-05   -0.39838E-06  9728   0.239E-02    0.213E-03
DAV:   7    -0.225462554313E+02   -0.20475E-06   -0.29420E-07  8816   0.590E-03    0.865E-04
DAV:   8    -0.225462554945E+02   -0.63190E-07   -0.22086E-08  6544   0.238E-03    0.237E-04
DAV:   9    -0.225462555262E+02   -0.31736E-07   -0.43010E-09  4384   0.788E-04    0.618E-05
DAV:  10    -0.225462555287E+02   -0.24720E-08   -0.81065E-10  4288   0.345E-04
  23 F= -.22546256E+02 E0= -.22546809E+02  d E =-.941410E-03  mag=    -0.0000
       N       E                     dE             d eps       ncg     rms          rms(c)
DAV:   1    -0.225463917512E+02   -0.13622E-03   -0.25223E-03  8768   0.433E-01    0.795E-02
DAV:   2    -0.225463303915E+02    0.61360E-04   -0.14930E-04  9600   0.193E-01    0.435E-02
DAV:   3    -0.225463171320E+02    0.13259E-04   -0.10225E-04  9616   0.140E-01    0.407E-02
DAV:   4    -0.225463309323E+02   -0.13800E-04   -0.16981E-04  9952   0.237E-01    0.728E-02
DAV:   5    -0.225463018192E+02    0.29113E-04   -0.89248E-05 10016   0.178E-01    0.319E-03
DAV:   6    -0.225463018993E+02   -0.80097E-07   -0.46182E-06  8384   0.202E-02    0.181E-03
DAV:   7    -0.225463018575E+02    0.41751E-07   -0.15288E-07 10832   0.519E-03    0.661E-04
DAV:   8    -0.225463018579E+02   -0.41655E-09   -0.14361E-08  4944   0.124E-03
  24 F= -.22546302E+02 E0= -.22546856E+02  d E =-.463292E-04  mag=    -0.0000
       N       E                     dE             d eps       ncg     rms          rms(c)
DAV:   1    -0.225472388409E+02   -0.93698E-03   -0.22714E-02  8768   0.130E+00    0.239E-01
DAV:   2    -0.225466845846E+02    0.55426E-03   -0.13498E-03  9600   0.575E-01    0.131E-01
DAV:   3    -0.225465758099E+02    0.10877E-03   -0.95299E-04  9696   0.435E-01    0.128E-01
DAV:   4    -0.225466986511E+02   -0.12284E-03   -0.16269E-03  9872   0.731E-01    0.219E-01
DAV:   5    -0.225464287761E+02    0.26988E-03   -0.81236E-04 10016   0.547E-01    0.988E-03
DAV:   6    -0.225464297557E+02   -0.97957E-06   -0.43601E-05  8384   0.623E-02    0.570E-03
DAV:   7    -0.225464294967E+02    0.25895E-06   -0.15516E-06 10712   0.167E-02    0.198E-03
DAV:   8    -0.225464295402E+02   -0.43419E-07   -0.15505E-07  9136   0.415E-03    0.557E-04
DAV:   9    -0.225464295373E+02    0.29031E-08   -0.87530E-09  4416   0.131E-03
  25 F= -.22546430E+02 E0= -.22546984E+02  d E =-.174009E-03  mag=    -0.0000
       N       E                     dE             d eps       ncg     rms          rms(c)
DAV:   1    -0.225498793802E+02   -0.34498E-02   -0.91012E-02  8768   0.260E+00    0.478E-01
DAV:   2    -0.225476606939E+02    0.22187E-02   -0.54775E-03  9600   0.115E+00    0.263E-01
DAV:   3    -0.225472618261E+02    0.39887E-03   -0.40103E-03  9712   0.910E-01    0.273E-01
DAV:   4    -0.225477184198E+02   -0.45659E-03   -0.69328E-03  9840   0.150E+00    0.432E-01
DAV:   5    -0.225466300114E+02    0.10884E-02   -0.32135E-03 10080   0.112E+00    0.208E-02
DAV:   6    -0.225466346726E+02   -0.46612E-05   -0.18317E-04  8400   0.130E-01    0.124E-02
DAV:   7    -0.225466336164E+02    0.10562E-05   -0.76109E-06 10688   0.378E-02    0.400E-03
DAV:   8    -0.225466338361E+02   -0.21967E-06   -0.77211E-07  9248   0.111E-02    0.182E-03
DAV:   9    -0.225466338125E+02    0.23583E-07   -0.66471E-08  8096   0.417E-03    0.475E-04
DAV:  10    -0.225466337957E+02    0.16829E-07   -0.84763E-09  4320   0.975E-04    0.110E-04
DAV:  11    -0.225466337945E+02    0.12005E-08   -0.11695E-09  4240   0.428E-04
  26 F= -.22546634E+02 E0= -.22547186E+02  d E =-.378266E-03  mag=    -0.0000
       N       E                     dE             d eps       ncg     rms          rms(c)
DAV:   1    -0.225598764761E+02   -0.13243E-01   -0.36517E-01  8816   0.521E+00    0.960E-01
DAV:   2    -0.225510100997E+02    0.88664E-02   -0.22444E-02  9552   0.231E+00    0.533E-01
DAV:   3    -0.225497217318E+02    0.12884E-02   -0.17845E-02  9728   0.198E+00    0.613E-01
DAV:   4    -0.225509786758E+02   -0.12569E-02   -0.30319E-02  9792   0.307E+00    0.816E-01
DAV:   5    -0.225468265129E+02    0.41522E-02   -0.11728E-02 10128   0.226E+00    0.479E-02
DAV:   6    -0.225468456791E+02   -0.19166E-04   -0.77574E-04  8480   0.278E-01    0.291E-02
DAV:   7    -0.225468404000E+02    0.52792E-05   -0.43230E-05 10464   0.965E-02    0.896E-03
DAV:   8    -0.225468414370E+02   -0.10371E-05   -0.52163E-06  9264   0.353E-02    0.653E-03
DAV:   9    -0.225468411813E+02    0.25572E-06   -0.81750E-07 10416   0.155E-02    0.101E-03
DAV:  10    -0.225468411391E+02    0.42202E-07   -0.56784E-08  7856   0.254E-03    0.308E-04
DAV:  11    -0.225468411379E+02    0.11987E-08   -0.37180E-09  4336   0.106E-03
  27 F= -.22546841E+02 E0= -.22547391E+02  d E =-.585609E-03  mag=    -0.0000
       N       E                     dE             d eps       ncg     rms          rms(c)
DAV:   1    -0.225479827581E+02   -0.11416E-02   -0.31622E-02  8752   0.153E+00    0.283E-01
DAV:   2    -0.225472194620E+02    0.76330E-03   -0.20243E-03  9616   0.698E-01    0.157E-01
DAV:   3    -0.225470342974E+02    0.18516E-03   -0.12937E-03  9584   0.488E-01    0.134E-01
DAV:   4    -0.225472022109E+02   -0.16791E-03   -0.20268E-03 10016   0.794E-01    0.250E-01
DAV:   5    -0.225468510597E+02    0.35115E-03   -0.11160E-03 10000   0.637E-01    0.111E-02
DAV:   6    -0.225468524878E+02   -0.14282E-05   -0.55982E-05  8480   0.708E-02    0.667E-03
DAV:   7    -0.225468521866E+02    0.30128E-06   -0.22075E-06 10864   0.209E-02    0.226E-03
DAV:   8    -0.225468522414E+02   -0.54795E-07   -0.24201E-07  9072   0.639E-03    0.794E-04
DAV:   9    -0.225468522350E+02    0.63137E-08   -0.15899E-08  4720   0.199E-03
  28 F= -.22546852E+02 E0= -.22547402E+02  d E =-.596706E-03  mag=    -0.0000
       N       E                     dE             d eps       ncg     rms          rms(c)
DAV:   1    -0.225469340861E+02   -0.81845E-04   -0.19896E-03  8720   0.391E-01    0.745E-02
DAV:   2    -0.225469020516E+02    0.32034E-04   -0.27987E-04  9584   0.257E-01    0.728E-02
DAV:   3    -0.225469066633E+02   -0.46116E-05   -0.40453E-04  9712   0.358E-01    0.904E-02
DAV:   4    -0.225468646765E+02    0.41987E-04   -0.19743E-04  9952   0.259E-01    0.268E-02
DAV:   5    -0.225468559569E+02    0.87196E-05   -0.21357E-05 10208   0.665E-02    0.421E-03
DAV:   6    -0.225468558228E+02    0.13410E-06   -0.23723E-06  8928   0.192E-02    0.154E-03
DAV:   7    -0.225468558361E+02   -0.13293E-07   -0.15172E-07  9472   0.497E-03    0.605E-04
DAV:   8    -0.225468558448E+02   -0.87039E-08   -0.11302E-08  4528   0.136E-03
  29 F= -.22546856E+02 E0= -.22547402E+02  d E =-.360978E-05  mag=    -0.0000
       N       E                     dE             d eps       ncg     rms          rms(c)
DAV:   1    -0.225468585796E+02   -0.27435E-05   -0.66012E-05  8720   0.712E-02    0.136E-02
DAV:   2    -0.225468574601E+02    0.11196E-05   -0.93440E-06  9584   0.472E-02    0.135E-02
DAV:   3    -0.225468576266E+02   -0.16654E-06   -0.13519E-05  9728   0.658E-02    0.164E-02
DAV:   4    -0.225468562923E+02    0.13344E-05   -0.64818E-06  9984   0.465E-02    0.485E-03
DAV:   5    -0.225468559743E+02    0.31802E-06   -0.70033E-07 10176   0.120E-02    0.768E-04
DAV:   6    -0.225468559686E+02    0.56552E-08   -0.78695E-08  8392   0.349E-03
  30 F= -.22546856E+02 E0= -.22547402E+02  d E =-.373355E-05  mag=    -0.0000
