 running on   24 total cores
 distrk:  each k-point on   24 cores,    1 groups
 distr:  one band on    6 cores,    4 groups
 using from now: INCAR     
 vasp.5.4.4.18Apr17-6-g9f103f2a35 (build Jan 03 2018 06:08:52) complex          
  
 POSCAR found :  2 types and       8 ions
 scaLAPACK will be used
 WARNING: for PREC=h ENMAX is automatically increase by 25 %
        this was not the case for versions prior to vasp.4.4
 WARNING: for PREC=h ENMAX is automatically increase by 25 %
        this was not the case for versions prior to vasp.4.4
 LDA part: xc-table for Pade appr. of Perdew
 POSCAR, INCAR and KPOINTS ok, starting setup
 FFT: planning ...
 WAVECAR not read
 entering main loop
       N       E                     dE             d eps       ncg     rms          rms(c)
DAV:   1     0.111313248282E+04    0.11131E+04   -0.51908E+04  5624   0.176E+03
DAV:   2     0.302822295055E+02   -0.10829E+04   -0.10395E+04  4820   0.571E+02
DAV:   3    -0.472374509307E+02   -0.77520E+02   -0.71962E+02  5512   0.171E+02
DAV:   4    -0.500460262704E+02   -0.28086E+01   -0.27856E+01  5436   0.304E+01
DAV:   5    -0.501142036052E+02   -0.68177E-01   -0.68161E-01  5456   0.465E+00    0.284E+01
DAV:   6    -0.593749899521E+02   -0.92608E+01   -0.11799E+02  5468   0.114E+02    0.353E+01
DAV:   7    -0.433629654149E+02    0.16012E+02   -0.45854E+01  5428   0.744E+01    0.447E+00
DAV:   8    -0.439149377277E+02   -0.55197E+00   -0.36952E+00  5844   0.215E+01    0.650E+00
DAV:   9    -0.436851855940E+02    0.22975E+00   -0.91669E-01  5712   0.173E+01    0.287E+00
DAV:  10    -0.436411388606E+02    0.44047E-01   -0.30412E-01  5760   0.583E+00    0.718E-01
DAV:  11    -0.436413176277E+02   -0.17877E-03   -0.34904E-02  5376   0.167E+00    0.393E-01
DAV:  12    -0.436395476163E+02    0.17700E-02   -0.57922E-03  6188   0.735E-01    0.113E-01
DAV:  13    -0.436396131415E+02   -0.65525E-04   -0.79146E-04  5132   0.269E-01    0.590E-02
DAV:  14    -0.436396099707E+02    0.31708E-05   -0.51651E-05  6220   0.678E-02    0.220E-02
DAV:  15    -0.436396070943E+02    0.28764E-05   -0.10901E-05  6128   0.269E-02    0.625E-03
DAV:  16    -0.436396064573E+02    0.63700E-06   -0.13924E-06  5740   0.892E-03    0.213E-03
DAV:  17    -0.436396060769E+02    0.38043E-06   -0.22423E-07  4960   0.323E-03    0.899E-04
DAV:  18    -0.436396060723E+02    0.45584E-08   -0.26547E-08  3912   0.128E-03
   1 F= -.43639606E+02 E0= -.43639693E+02  d E =-.436396E+02  mag=     0.0000
 curvature:   0.00 expect dE= 0.000E+00 dE for cont linesearch  0.000E+00
 trial: gam= 0.00000 g(F)=  0.322E-01 g(S)=  0.155E+01 ort = 0.000E+00 (trialstep = 0.100E+01)
 search vector abs. value=  0.158E+01
 bond charge predicted
       N       E                     dE             d eps       ncg     rms          rms(c)
DAV:   1    -0.128095281537E+03   -0.84456E+02   -0.91550E+02  4900   0.352E+02    0.768E+01
DAV:   2    -0.101016406716E+03    0.27079E+02   -0.71835E+02  5368   0.231E+02    0.643E+01
DAV:   3    -0.516240343111E+02    0.49392E+02   -0.25753E+02  5484   0.148E+02    0.272E+01
DAV:   4    -0.470309030055E+02    0.45931E+01   -0.31853E+01  5564   0.600E+01    0.198E+01
DAV:   5    -0.448576095079E+02    0.21733E+01   -0.19073E+01  5832   0.395E+01    0.852E+00
DAV:   6    -0.439841545611E+02    0.87345E+00   -0.17654E+00  5776   0.204E+01    0.229E+00
DAV:   7    -0.439394063563E+02    0.44748E-01   -0.44027E-01  5136   0.524E+00    0.466E-01
DAV:   8    -0.439340087405E+02    0.53976E-02   -0.31776E-02  5048   0.169E+00    0.322E-01
DAV:   9    -0.439337874958E+02    0.22124E-03   -0.68137E-03  5600   0.931E-01    0.269E-01
DAV:  10    -0.439332442314E+02    0.54326E-03   -0.17552E-03  5584   0.527E-01    0.481E-02
DAV:  11    -0.439332475353E+02   -0.33039E-05   -0.20202E-04  5508   0.110E-01    0.256E-02
DAV:  12    -0.439332402811E+02    0.72541E-05   -0.30471E-05  5304   0.524E-02    0.835E-03
DAV:  13    -0.439332414152E+02   -0.11340E-05   -0.31543E-06  6656   0.153E-02    0.661E-03
DAV:  14    -0.439332412389E+02    0.17621E-06   -0.15172E-06  5432   0.135E-02    0.780E-04
DAV:  15    -0.439332412302E+02    0.87166E-08   -0.15607E-07  4984   0.234E-03    0.143E-03
DAV:  16    -0.439332411845E+02    0.45737E-07   -0.54663E-08  4012   0.238E-03    0.416E-04
DAV:  17    -0.439332411706E+02    0.13883E-07   -0.44837E-09  2684   0.529E-04    0.168E-04
DAV:  18    -0.439332411628E+02    0.77926E-08   -0.13352E-09  2664   0.244E-04
   2 F= -.43933241E+02 E0= -.43932075E+02  d E =-.293635E+00  mag=    -0.0000
 trial-energy change:   -0.293635  1 .order   -0.350675   -1.582000    0.880650
 step:   0.6093(harm=  0.6424)  dis= 0.01200  next Energy=   -44.108671 (dE=-0.469E+00)
 bond charge predicted
       N       E                     dE             d eps       ncg     rms          rms(c)
DAV:   1    -0.597649451052E+02   -0.15832E+02   -0.14551E+02  5168   0.125E+02    0.408E+01
DAV:   2    -0.760798668784E+02   -0.16315E+02   -0.23969E+02  5336   0.159E+02    0.441E+01
DAV:   3    -0.442479289870E+02    0.31832E+02   -0.87338E+01  5308   0.957E+01    0.429E+00
DAV:   4    -0.443097906116E+02   -0.61862E-01   -0.45088E+00  5480   0.150E+01    0.515E+00
DAV:   5    -0.444366910148E+02   -0.12690E+00   -0.12696E+00  6160   0.165E+01    0.828E+00
DAV:   6    -0.441030773825E+02    0.33361E+00   -0.19371E+00  5580   0.109E+01    0.850E-01
DAV:   7    -0.441002818206E+02    0.27956E-02   -0.61740E-02  5320   0.215E+00    0.219E-01
DAV:   8    -0.440999276869E+02    0.35413E-03   -0.46412E-03  5752   0.533E-01    0.123E-01
DAV:   9    -0.440998410444E+02    0.86643E-04   -0.69007E-04  5240   0.247E-01    0.138E-02
DAV:  10    -0.440998368464E+02    0.41980E-05   -0.25320E-05  5408   0.401E-02    0.111E-02
DAV:  11    -0.440998332800E+02    0.35664E-05   -0.40804E-06  6140   0.184E-02    0.291E-03
DAV:  12    -0.440998331973E+02    0.82626E-07   -0.61519E-07  5484   0.500E-03    0.892E-04
DAV:  13    -0.440998331695E+02    0.27838E-07   -0.31296E-08  4240   0.123E-03    0.410E-04
DAV:  14    -0.440998331393E+02    0.30184E-07   -0.36395E-09  2648   0.597E-04    0.217E-04
DAV:  15    -0.440998331344E+02    0.49076E-08   -0.18121E-09  2632   0.441E-04
   3 F= -.44099833E+02 E0= -.44099009E+02  d E =-.460227E+00  mag=     0.0000
 curvature:  -0.32 expect dE=-0.496E-01 dE for cont linesearch -0.215E-11
 trial: gam= 0.09839 g(F)=  0.950E-02 g(S)=  0.146E+00 ort = 0.327E-05 (trialstep = 0.922E+00)
 search vector abs. value=  0.171E+00
 bond charge predicted
       N       E                     dE             d eps       ncg     rms          rms(c)
DAV:   1    -0.447481554681E+02   -0.64832E+00   -0.29612E+01  5600   0.842E+01    0.938E+00
DAV:   2    -0.450266110386E+02   -0.27846E+00   -0.10357E+01  5488   0.312E+01    0.782E+00
DAV:   3    -0.444103006048E+02    0.61631E+00   -0.26624E+00  5304   0.171E+01    0.382E+00
DAV:   4    -0.442638865518E+02    0.14641E+00   -0.48806E-01  6216   0.787E+00    0.309E+00
DAV:   5    -0.442240254777E+02    0.39861E-01   -0.31774E-01  5432   0.574E+00    0.865E-01
DAV:   6    -0.442194842790E+02    0.45412E-02   -0.25996E-02  5488   0.170E+00    0.234E-01
DAV:   7    -0.442192009522E+02    0.28333E-03   -0.23147E-03  5712   0.375E-01    0.761E-02
DAV:   8    -0.442192641662E+02   -0.63214E-04   -0.31571E-04  5264   0.136E-01    0.266E-02
DAV:   9    -0.442192616506E+02    0.25156E-05   -0.36095E-05  5488   0.560E-02    0.754E-03
DAV:  10    -0.442192605769E+02    0.10736E-05   -0.23099E-06  5096   0.116E-02    0.330E-03
DAV:  11    -0.442192602999E+02    0.27708E-06   -0.43428E-07  5516   0.589E-03    0.893E-04
DAV:  12    -0.442192602389E+02    0.60973E-07   -0.31298E-08  3984   0.172E-03    0.277E-04
DAV:  13    -0.442192602246E+02    0.14337E-07   -0.44709E-09  2584   0.582E-04    0.377E-05
DAV:  14    -0.442192602259E+02   -0.13315E-08   -0.96486E-10  2588   0.217E-04
   4 F= -.44219260E+02 E0= -.44218022E+02  d E =-.119427E+00  mag=     0.0000
 trial-energy change:   -0.119427  1 .order   -0.119932   -0.143490   -0.096373
 step:   3.3910(harm=  2.8074)  dis= 0.04286  next Energy=   -44.338628 (dE=-0.239E+00)
 bond charge predicted
       N       E                     dE             d eps       ncg     rms          rms(c)
DAV:   1    -0.485334077831E+02   -0.43141E+01   -0.22674E+02  5688   0.236E+02    0.262E+01
DAV:   2    -0.500875892554E+02   -0.15542E+01   -0.75327E+01  5392   0.840E+01    0.201E+01
DAV:   3    -0.457089144681E+02    0.43787E+01   -0.21763E+01  5372   0.472E+01    0.105E+01
DAV:   4    -0.456257559848E+02    0.83158E-01   -0.88690E+00  6272   0.301E+01    0.118E+01
DAV:   5    -0.443485214794E+02    0.12772E+01   -0.20112E+00  5544   0.259E+01    0.990E-01
DAV:   6    -0.443603514136E+02   -0.11830E-01   -0.34078E-01  5616   0.393E+00    0.805E-01
DAV:   7    -0.443636632547E+02   -0.33118E-02   -0.64564E-02  5720   0.267E+00    0.103E+00
DAV:   8    -0.443584499221E+02    0.52133E-02   -0.30199E-02  5496   0.206E+00    0.309E-01
DAV:   9    -0.443580254724E+02    0.42445E-03   -0.27991E-03  6256   0.504E-01    0.335E-02
DAV:  10    -0.443580366228E+02   -0.11150E-04   -0.24933E-04  5592   0.148E-01    0.496E-02
DAV:  11    -0.443580227836E+02    0.13839E-04   -0.83354E-05  5344   0.101E-01    0.143E-02
DAV:  12    -0.443580226405E+02    0.14308E-06   -0.15819E-05  5624   0.432E-02    0.139E-02
DAV:  13    -0.443580214768E+02    0.11637E-05   -0.35599E-06  5440   0.203E-02    0.585E-04
DAV:  14    -0.443580215053E+02   -0.28460E-07   -0.46003E-07  6028   0.431E-03    0.254E-03
DAV:  15    -0.443580214627E+02    0.42601E-07   -0.10056E-07  4616   0.344E-03    0.656E-04
DAV:  16    -0.443580214561E+02    0.65993E-08   -0.10017E-08  2584   0.924E-04
   5 F= -.44358021E+02 E0= -.44358641E+02  d E =-.258188E+00  mag=     0.0000
 curvature:  -1.39 expect dE=-0.450E-01 dE for cont linesearch -0.485E-03
 ZBRENT: extrapolating
 opt :   3.5876  next Energy=   -44.358780 (dE=-0.259E+00)
 bond charge predicted
       N       E                     dE             d eps       ncg     rms          rms(c)
DAV:   1    -0.443960563506E+02   -0.38035E-01   -0.15752E+00  5712   0.181E+01    0.227E+00
DAV:   2    -0.444108162140E+02   -0.14760E-01   -0.60580E-01  5336   0.787E+00    0.198E+00
DAV:   3    -0.443694695196E+02    0.41347E-01   -0.16557E-01  5288   0.467E+00    0.113E+00
DAV:   4    -0.443868337464E+02   -0.17364E-01   -0.14752E-01  5496   0.443E+00    0.223E+00
DAV:   5    -0.443579290950E+02    0.28905E-01   -0.92376E-02  5824   0.291E+00    0.113E-01
DAV:   6    -0.443579968483E+02   -0.67753E-04   -0.40714E-03  5240   0.395E-01    0.472E-02
DAV:   7    -0.443579942904E+02    0.25579E-05   -0.12745E-04  6640   0.907E-02    0.255E-02
DAV:   8    -0.443579983308E+02   -0.40403E-05   -0.19620E-05  5560   0.326E-02    0.424E-03
DAV:   9    -0.443579981642E+02    0.16661E-06   -0.11171E-06  5592   0.104E-02    0.201E-03
DAV:  10    -0.443579980194E+02    0.14477E-06   -0.17821E-07  5104   0.279E-03    0.577E-04
DAV:  11    -0.443579980064E+02    0.12977E-07   -0.16719E-08  3492   0.123E-03    0.102E-04
DAV:  12    -0.443579979920E+02    0.14388E-07   -0.49867E-09  2560   0.366E-04    0.957E-05
DAV:  13    -0.443579979888E+02    0.32087E-08   -0.88226E-10  2528   0.217E-04
   6 F= -.44357998E+02 E0= -.44358464E+02  d E =-.258165E+00  mag=    -0.0000
 curvature:  -2.18 expect dE=-0.874E-01 dE for cont linesearch -0.613E-04
 trial: gam= 0.40378 g(F)=  0.671E-02 g(S)=  0.334E-01 ort =-0.219E-02 (trialstep = 0.146E+01)
 search vector abs. value=  0.662E-01
 bond charge predicted
       N       E                     dE             d eps       ncg     rms          rms(c)
DAV:   1    -0.488129436402E+02   -0.44549E+01   -0.51713E+01  5296   0.782E+01    0.209E+01
DAV:   2    -0.524647406838E+02   -0.36518E+01   -0.81450E+01  5384   0.791E+01    0.274E+01
DAV:   3    -0.469696937778E+02    0.54950E+01   -0.53643E+01  5416   0.549E+01    0.164E+01
DAV:   4    -0.445034022474E+02    0.24663E+01   -0.60930E+00  5368   0.349E+01    0.439E+00
DAV:   5    -0.443762420106E+02    0.12716E+00   -0.12276E+00  5928   0.108E+01    0.253E+00
DAV:   6    -0.443602601716E+02    0.15982E-01   -0.42638E-01  5352   0.619E+00    0.146E+00
DAV:   7    -0.443475838279E+02    0.12676E-01   -0.59547E-02  5192   0.277E+00    0.265E-01
DAV:   8    -0.443476699545E+02   -0.86127E-04   -0.45165E-03  5176   0.484E-01    0.203E-01
DAV:   9    -0.443474444195E+02    0.22553E-03   -0.75475E-04  5608   0.254E-01    0.402E-02
DAV:  10    -0.443474416437E+02    0.27758E-05   -0.81442E-05  6504   0.558E-02    0.709E-03
DAV:  11    -0.443474421454E+02   -0.50173E-06   -0.70364E-06  5368   0.167E-02    0.253E-03
DAV:  12    -0.443474425661E+02   -0.42066E-06   -0.93348E-07  5508   0.732E-03    0.640E-03
DAV:  13    -0.443474423674E+02    0.19871E-06   -0.84353E-07  5592   0.944E-03    0.493E-04
DAV:  14    -0.443474423713E+02   -0.39436E-08   -0.63680E-08  4224   0.138E-03
   7 F= -.44347442E+02 E0= -.44347590E+02  d E =0.105556E-01  mag=     0.0000
 trial-energy change:    0.010556  1 .order    0.011169   -0.057026    0.079364
 step:   0.6179(harm=  0.6084)  dis= 0.00241  next Energy=   -44.370155 (dE=-0.122E-01)
 bond charge predicted
       N       E                     dE             d eps       ncg     rms          rms(c)
DAV:   1    -0.458301636639E+02   -0.14827E+01   -0.16624E+01  5336   0.433E+01    0.121E+01
DAV:   2    -0.469798921910E+02   -0.11497E+01   -0.19644E+01  5352   0.457E+01    0.142E+01
DAV:   3    -0.445462690319E+02    0.24336E+01   -0.81288E+00  5352   0.331E+01    0.584E+00
DAV:   4    -0.444507209130E+02    0.95548E-01   -0.19004E+00  5336   0.127E+01    0.312E+00
DAV:   5    -0.443712579936E+02    0.79463E-01   -0.20753E-01  6160   0.572E+00    0.564E-01
DAV:   6    -0.443699378879E+02    0.13201E-02   -0.23923E-02  5168   0.127E+00    0.133E-01
DAV:   7    -0.443698678893E+02    0.69999E-04   -0.95335E-04  5320   0.298E-01    0.493E-02
DAV:   8    -0.443698652127E+02    0.26766E-05   -0.93553E-05  5640   0.764E-02    0.130E-02
DAV:   9    -0.443698616746E+02    0.35382E-05   -0.85843E-06  6176   0.249E-02    0.375E-03
DAV:  10    -0.443698610089E+02    0.66561E-06   -0.67153E-07  5264   0.606E-03    0.126E-03
DAV:  11    -0.443698610644E+02   -0.55425E-07   -0.82973E-08  4976   0.280E-03    0.360E-04
DAV:  12    -0.443698610678E+02   -0.34233E-08   -0.78547E-09  2680   0.822E-04
   8 F= -.44369861E+02 E0= -.44369998E+02  d E =-.118631E-01  mag=     0.0000
 curvature:  -0.51 expect dE=-0.258E-02 dE for cont linesearch -0.198E-05
 trial: gam= 0.08152 g(F)=  0.455E-02 g(S)=  0.481E-03 ort =-0.505E-03 (trialstep = 0.129E+01)
 search vector abs. value=  0.538E-02
 bond charge predicted
       N       E                     dE             d eps       ncg     rms          rms(c)
DAV:   1    -0.442153300132E+02    0.15453E+00   -0.42906E+00  7904   0.618E+01    0.126E+00
DAV:   2    -0.443917878646E+02   -0.17646E+00   -0.18323E+00  5160   0.835E+00    0.133E+00
DAV:   3    -0.443820216308E+02    0.97662E-02   -0.13524E-01  5432   0.430E+00    0.110E+00
DAV:   4    -0.443763562730E+02    0.56654E-02   -0.32569E-02  5504   0.211E+00    0.400E-01
DAV:   5    -0.443751507948E+02    0.12055E-02   -0.25257E-03  5800   0.584E-01    0.213E-01
DAV:   6    -0.443746242417E+02    0.52655E-03   -0.81844E-04  6032   0.432E-01    0.469E-02
DAV:   7    -0.443746217528E+02    0.24889E-05   -0.24215E-04  5176   0.130E-01    0.129E-02
DAV:   8    -0.443746224311E+02   -0.67837E-06   -0.14579E-05  5336   0.439E-02    0.779E-03
DAV:   9    -0.443746221589E+02    0.27219E-06   -0.21318E-06  5656   0.160E-02    0.237E-03
DAV:  10    -0.443746220566E+02    0.10235E-06   -0.28146E-07  6096   0.618E-03    0.721E-04
DAV:  11    -0.443746220117E+02    0.44853E-07   -0.24652E-08  3528   0.221E-03    0.213E-04
DAV:  12    -0.443746220086E+02    0.30959E-08   -0.29546E-09  2496   0.739E-04
   9 F= -.44374622E+02 E0= -.44374646E+02  d E =-.476094E-02  mag=     0.0000
 trial-energy change:   -0.004761  1 .order   -0.004779   -0.006420   -0.003138
 step:   2.6064(harm=  2.5183)  dis= 0.02013  next Energy=   -44.376209 (dE=-0.635E-02)
 bond charge predicted
       N       E                     dE             d eps       ncg     rms          rms(c)
DAV:   1    -0.442098009507E+02    0.16482E+00   -0.45046E+00  7904   0.634E+01    0.131E+00
DAV:   2    -0.443956001243E+02   -0.18580E+00   -0.19249E+00  5212   0.862E+00    0.140E+00
DAV:   3    -0.443840371965E+02    0.11563E-01   -0.14510E-01  5432   0.447E+00    0.113E+00
DAV:   4    -0.443780648820E+02    0.59723E-02   -0.34709E-02  5508   0.219E+00    0.411E-01
DAV:   5    -0.443767918265E+02    0.12731E-02   -0.26881E-03  5800   0.601E-01    0.218E-01
DAV:   6    -0.443762381589E+02    0.55367E-03   -0.86243E-04  6024   0.444E-01    0.472E-02
DAV:   7    -0.443762363414E+02    0.18175E-05   -0.25586E-04  5176   0.134E-01    0.135E-02
DAV:   8    -0.443762369960E+02   -0.65462E-06   -0.15594E-05  5376   0.453E-02    0.810E-03
DAV:   9    -0.443762366769E+02    0.31915E-06   -0.24146E-06  5560   0.171E-02    0.251E-03
DAV:  10    -0.443762365666E+02    0.11028E-06   -0.32084E-07  6136   0.671E-03    0.761E-04
DAV:  11    -0.443762365185E+02    0.48130E-07   -0.27114E-08  3688   0.233E-03    0.235E-04
DAV:  12    -0.443762365144E+02    0.41000E-08   -0.32747E-09  2528   0.782E-04
  10 F= -.44376237E+02 E0= -.44376128E+02  d E =-.637545E-02  mag=     0.0000
 curvature:  -1.35 expect dE=-0.333E-03 dE for cont linesearch -0.549E-05
 trial: gam= 0.08376 g(F)=  0.363E-05 g(S)=  0.243E-03 ort =-0.148E-03 (trialstep = 0.155E+01)
 search vector abs. value=  0.259E-03
 bond charge predicted
       N       E                     dE             d eps       ncg     rms          rms(c)
DAV:   1    -0.444001818610E+02   -0.23945E-01   -0.30594E-01  5112   0.102E+01    0.167E+00
DAV:   2    -0.444260507702E+02   -0.25869E-01   -0.41075E-01  5344   0.649E+00    0.203E+00
DAV:   3    -0.443829288568E+02    0.43122E-01   -0.19508E-01  5352   0.455E+00    0.112E+00
DAV:   4    -0.443771908371E+02    0.57380E-02   -0.34336E-02  5352   0.221E+00    0.314E-01
DAV:   5    -0.443763269996E+02    0.86384E-03   -0.19245E-03  5488   0.454E-01    0.784E-02
DAV:   6    -0.443762781011E+02    0.48899E-04   -0.21229E-04  5600   0.113E-01    0.185E-02
DAV:   7    -0.443762776372E+02    0.46396E-06   -0.31476E-05  5256   0.600E-02    0.109E-02
DAV:   8    -0.443762776967E+02   -0.59550E-07   -0.31177E-06  5768   0.185E-02    0.181E-03
DAV:   9    -0.443762778149E+02   -0.11821E-06   -0.23625E-07  5664   0.486E-03    0.716E-04
DAV:  10    -0.443762778927E+02   -0.77740E-07   -0.18500E-08  3512   0.122E-03    0.112E-04
DAV:  11    -0.443762779084E+02   -0.15767E-07   -0.23608E-09  2520   0.412E-04    0.688E-05
DAV:  12    -0.443762779127E+02   -0.42310E-08   -0.68368E-10  2484   0.220E-04
  11 F= -.44376278E+02 E0= -.44376186E+02  d E =-.413983E-04  mag=    -0.0000
 trial-energy change:   -0.000041  1 .order    0.000008   -0.000363    0.000379
 step:   0.9093(harm=  0.7590)  dis= 0.00078  next Energy=   -44.376353 (dE=-0.116E-03)
 bond charge predicted
       N       E                     dE             d eps       ncg     rms          rms(c)
DAV:   1    -0.443805567107E+02   -0.42788E-02   -0.52278E-02  5152   0.423E+00    0.708E-01
DAV:   2    -0.443854430252E+02   -0.48863E-02   -0.72316E-02  5344   0.274E+00    0.845E-01
DAV:   3    -0.443771675690E+02    0.82755E-02   -0.31363E-02  5344   0.185E+00    0.394E-01
DAV:   4    -0.443765128030E+02    0.65477E-03   -0.46516E-03  5456   0.746E-01    0.121E-01
DAV:   5    -0.443763844789E+02    0.12832E-03   -0.25357E-04  5480   0.162E-01    0.374E-02
DAV:   6    -0.443763699893E+02    0.14490E-04   -0.37174E-05  5592   0.493E-02    0.646E-03
DAV:   7    -0.443763694191E+02    0.57015E-06   -0.36447E-06  5264   0.201E-02    0.347E-03
DAV:   8    -0.443763690952E+02    0.32388E-06   -0.32234E-07  5952   0.564E-03    0.779E-04
DAV:   9    -0.443763690243E+02    0.70904E-07   -0.34905E-08  4552   0.187E-03    0.234E-04
DAV:  10    -0.443763689964E+02    0.27881E-07   -0.31211E-09  2520   0.460E-04    0.418E-05
DAV:  11    -0.443763689933E+02    0.31505E-08   -0.62496E-10  2472   0.240E-04
  12 F= -.44376369E+02 E0= -.44376270E+02  d E =-.132479E-03  mag=     0.0000
 curvature:  -0.41 expect dE=-0.548E-04 dE for cont linesearch -0.333E-05
 trial: gam= 0.00000 g(F)=  0.694E-06 g(S)=  0.134E-03 ort =-0.461E-04 (trialstep = 0.142E+01)
 search vector abs. value=  0.135E-03
 bond charge predicted
       N       E                     dE             d eps       ncg     rms          rms(c)
DAV:   1    -0.443881832708E+02   -0.11814E-01   -0.11879E-01  5280   0.338E+00    0.109E+00
DAV:   2    -0.443989634275E+02   -0.10780E-01   -0.16946E-01  5356   0.414E+00    0.133E+00
DAV:   3    -0.443781687412E+02    0.20795E-01   -0.73004E-02  5364   0.280E+00    0.584E-01
DAV:   4    -0.443768062953E+02    0.13624E-02   -0.11514E-02  5372   0.117E+00    0.205E-01
DAV:   5    -0.443764277585E+02    0.37854E-03   -0.92853E-04  6060   0.285E-01    0.580E-02
DAV:   6    -0.443764002090E+02    0.27549E-04   -0.11481E-04  5592   0.918E-02    0.110E-02
DAV:   7    -0.443763988677E+02    0.13413E-05   -0.64262E-06  5152   0.230E-02    0.330E-03
DAV:   8    -0.443763986836E+02    0.18414E-06   -0.55051E-07  5712   0.671E-03    0.120E-03
DAV:   9    -0.443763985406E+02    0.14300E-06   -0.62922E-08  5368   0.224E-03    0.291E-04
DAV:  10    -0.443763985095E+02    0.31127E-07   -0.37618E-09  2608   0.550E-04    0.497E-05
DAV:  11    -0.443763985134E+02   -0.38744E-08   -0.65909E-10  2528   0.224E-04
  13 F= -.44376399E+02 E0= -.44376315E+02  d E =-.295201E-04  mag=     0.0000
 trial-energy change:   -0.000030  1 .order   -0.000031   -0.000192    0.000130
 step:   0.8383(harm=  0.8500)  dis= 0.00008  next Energy=   -44.376425 (dE=-0.563E-04)
 bond charge predicted
       N       E                     dE             d eps       ncg     rms          rms(c)
DAV:   1    -0.443784014811E+02   -0.20030E-02   -0.20070E-02  5280   0.139E+00    0.443E-01
DAV:   2    -0.443800983560E+02   -0.16969E-02   -0.28007E-02  5352   0.168E+00    0.548E-01
DAV:   3    -0.443767919796E+02    0.33064E-02   -0.12676E-02  5360   0.116E+00    0.266E-01
DAV:   4    -0.443764962204E+02    0.29576E-03   -0.22136E-03  5368   0.534E-01    0.866E-02
DAV:   5    -0.443764277979E+02    0.68422E-04   -0.15895E-04  5916   0.122E-01    0.198E-02
DAV:   6    -0.443764250008E+02    0.27971E-05   -0.16886E-05  5484   0.328E-02    0.415E-03
DAV:   7    -0.443764252776E+02   -0.27681E-06   -0.11321E-06  5124   0.101E-02    0.183E-03
DAV:   8    -0.443764253426E+02   -0.64967E-07   -0.11029E-07  5396   0.301E-03    0.394E-04
DAV:   9    -0.443764253868E+02   -0.44252E-07   -0.79155E-09  2656   0.821E-04    0.115E-04
DAV:  10    -0.443764254004E+02   -0.13606E-07   -0.19510E-09  2504   0.342E-04    0.282E-05
DAV:  11    -0.443764253985E+02    0.19936E-08   -0.46081E-10  2488   0.169E-04
  14 F= -.44376425E+02 E0= -.44376335E+02  d E =-.564052E-04  mag=     0.0000
 curvature:  -0.42 expect dE=-0.298E-04 dE for cont linesearch -0.131E-07
 trial: gam= 0.50449 g(F)=  0.173E-06 g(S)=  0.700E-04 ort = 0.204E-05 (trialstep = 0.131E+01)
 search vector abs. value=  0.107E-03
 bond charge predicted
       N       E                     dE             d eps       ncg     rms          rms(c)
DAV:   1    -0.443781208835E+02   -0.16955E-02   -0.38582E-02  5288   0.153E+00    0.364E-01
DAV:   2    -0.443779078714E+02    0.21301E-03   -0.10321E-02  5344   0.105E+00    0.329E-01
DAV:   3    -0.443767512796E+02    0.11566E-02   -0.41900E-03  5312   0.715E-01    0.159E-01
DAV:   4    -0.443773624776E+02   -0.61120E-03   -0.42014E-03  5568   0.709E-01    0.387E-01
DAV:   5    -0.443764929794E+02    0.86950E-03   -0.25849E-03  5624   0.557E-01    0.229E-02
DAV:   6    -0.443764952759E+02   -0.22966E-05   -0.12232E-04  5048   0.671E-02    0.723E-03
DAV:   7    -0.443764955951E+02   -0.31920E-06   -0.36009E-06  6256   0.150E-02    0.381E-03
DAV:   8    -0.443764960089E+02   -0.41374E-06   -0.46792E-07  5480   0.535E-03    0.879E-04
DAV:   9    -0.443764960055E+02    0.34197E-08   -0.50522E-08  4728   0.226E-03
  15 F= -.44376496E+02 E0= -.44376433E+02  d E =-.706070E-04  mag=    -0.0000
 trial-energy change:   -0.000071  1 .order   -0.000067   -0.000093   -0.000042
 step:   1.9878(harm=  2.3729)  dis= 0.00018  next Energy=   -44.376507 (dE=-0.820E-04)
 bond charge predicted
       N       E                     dE             d eps       ncg     rms          rms(c)
DAV:   1    -0.443769557349E+02   -0.45973E-03   -0.10501E-02  5288   0.798E-01    0.190E-01
DAV:   2    -0.443768962942E+02    0.59441E-04   -0.28051E-03  5344   0.546E-01    0.171E-01
DAV:   3    -0.443765837769E+02    0.31252E-03   -0.11420E-03  5304   0.374E-01    0.840E-02
DAV:   4    -0.443767492088E+02   -0.16543E-03   -0.11493E-03  5568   0.372E-01    0.202E-01
DAV:   5    -0.443765131452E+02    0.23606E-03   -0.70574E-04  5640   0.287E-01    0.119E-02
DAV:   6    -0.443765137216E+02   -0.57634E-06   -0.32551E-05  5048   0.348E-02    0.376E-03
DAV:   7    -0.443765138481E+02   -0.12650E-06   -0.96571E-07  6272   0.777E-03    0.198E-03
DAV:   8    -0.443765140209E+02   -0.17282E-06   -0.12419E-07  5128   0.275E-03    0.451E-04
DAV:   9    -0.443765140219E+02   -0.99317E-09   -0.11535E-08  2664   0.117E-03
  16 F= -.44376514E+02 E0= -.44376468E+02  d E =-.886234E-04  mag=    -0.0000
 curvature:  -1.54 expect dE=-0.362E-05 dE for cont linesearch -0.297E-05
 trial: gam=-0.13533 g(F)=  0.113E-06 g(S)=  0.223E-05 ort = 0.143E-04 (trialstep = 0.144E+01)
 search vector abs. value=  0.418E-06
 reached required accuracy - stopping structural energy minimisation
 writing wavefunctions
