   4   4   0   0
  0.1135055E+02  0.3567459E-09  0.3567459E-09  0.3567459E-09  0.5000000E-15
  1.000000000000000E-004
  CAR 
 unknown system                          
     24.26740562    -58.92730292  301      8.32698085      1.00000000
    -58.927  0.0000E+00  0.0000E+00  0.0000E+00  0.0000E+00
    -58.650  0.0000E+00  0.0000E+00  0.0000E+00  0.0000E+00
    -58.373  0.0000E+00  0.0000E+00  0.0000E+00  0.0000E+00
    -58.095  0.0000E+00  0.0000E+00  0.0000E+00  0.0000E+00
    -57.818  0.0000E+00  0.0000E+00  0.0000E+00  0.0000E+00
    -57.541  0.0000E+00  0.0000E+00  0.0000E+00  0.0000E+00
    -57.263  0.0000E+00  0.0000E+00  0.0000E+00  0.0000E+00
    -56.986  0.0000E+00  0.0000E+00  0.0000E+00  0.0000E+00
    -56.709  0.0000E+00  0.0000E+00  0.0000E+00  0.0000E+00
    -56.431  0.0000E+00  0.0000E+00  0.0000E+00  0.0000E+00
    -56.154  0.0000E+00  0.0000E+00  0.0000E+00  0.0000E+00
    -55.877  0.0000E+00  0.0000E+00  0.0000E+00  0.0000E+00
    -55.600  0.0000E+00  0.0000E+00  0.0000E+00  0.0000E+00
    -55.322  0.0000E+00  0.0000E+00  0.0000E+00  0.0000E+00
    -55.045  0.0000E+00  0.8230E+02  0.0000E+00  0.5519E+01
    -54.768  0.8647E+02  0.0000E+00  0.3577E+01  0.9000E+01
    -54.490  0.0000E+00  0.0000E+00  0.9000E+01  0.9000E+01
    -54.213  0.0000E+00  0.0000E+00  0.9000E+01  0.9000E+01
    -53.936  0.0000E+00  0.0000E+00  0.9000E+01  0.9000E+01
    -53.658  0.0000E+00  0.0000E+00  0.9000E+01  0.9000E+01
    -53.381  0.0000E+00  0.0000E+00  0.9000E+01  0.9000E+01
    -53.104  0.0000E+00  0.0000E+00  0.9000E+01  0.9000E+01
    -52.826  0.0000E+00  0.0000E+00  0.9000E+01  0.9000E+01
    -52.549  0.0000E+00  0.0000E+00  0.9000E+01  0.9000E+01
    -52.272  0.0000E+00  0.0000E+00  0.9000E+01  0.9000E+01
    -51.994  0.0000E+00  0.0000E+00  0.9000E+01  0.9000E+01
    -51.717  0.0000E+00  0.0000E+00  0.9000E+01  0.9000E+01
    -51.440  0.0000E+00  0.0000E+00  0.9000E+01  0.9000E+01
    -51.162  0.0000E+00  0.0000E+00  0.9000E+01  0.9000E+01
    -50.885  0.0000E+00  0.0000E+00  0.9000E+01  0.9000E+01
    -50.608  0.0000E+00  0.0000E+00  0.9000E+01  0.9000E+01
    -50.331  0.0000E+00  0.0000E+00  0.9000E+01  0.9000E+01
    -50.053  0.0000E+00  0.0000E+00  0.9000E+01  0.9000E+01
    -49.776  0.0000E+00  0.0000E+00  0.9000E+01  0.9000E+01
    -49.499  0.0000E+00  0.0000E+00  0.9000E+01  0.9000E+01
    -49.221  0.0000E+00  0.0000E+00  0.9000E+01  0.9000E+01
    -48.944  0.0000E+00  0.0000E+00  0.9000E+01  0.9000E+01
    -48.667  0.0000E+00  0.0000E+00  0.9000E+01  0.9000E+01
    -48.389  0.0000E+00  0.0000E+00  0.9000E+01  0.9000E+01
    -48.112  0.0000E+00  0.0000E+00  0.9000E+01  0.9000E+01
    -47.835  0.0000E+00  0.0000E+00  0.9000E+01  0.9000E+01
    -47.557  0.0000E+00  0.0000E+00  0.9000E+01  0.9000E+01
    -47.280  0.0000E+00  0.0000E+00  0.9000E+01  0.9000E+01
    -47.003  0.0000E+00  0.0000E+00  0.9000E+01  0.9000E+01
    -46.725  0.0000E+00  0.0000E+00  0.9000E+01  0.9000E+01
    -46.448  0.0000E+00  0.0000E+00  0.9000E+01  0.9000E+01
    -46.171  0.0000E+00  0.0000E+00  0.9000E+01  0.9000E+01
    -45.893  0.0000E+00  0.0000E+00  0.9000E+01  0.9000E+01
    -45.616  0.0000E+00  0.0000E+00  0.9000E+01  0.9000E+01
    -45.339  0.0000E+00  0.0000E+00  0.9000E+01  0.9000E+01
    -45.062  0.0000E+00  0.0000E+00  0.9000E+01  0.9000E+01
    -44.784  0.0000E+00  0.0000E+00  0.9000E+01  0.9000E+01
    -44.507  0.0000E+00  0.0000E+00  0.9000E+01  0.9000E+01
    -44.230  0.0000E+00  0.0000E+00  0.9000E+01  0.9000E+01
    -43.952  0.0000E+00  0.0000E+00  0.9000E+01  0.9000E+01
    -43.675  0.0000E+00  0.0000E+00  0.9000E+01  0.9000E+01
    -43.398  0.0000E+00  0.0000E+00  0.9000E+01  0.9000E+01
    -43.120  0.0000E+00  0.0000E+00  0.9000E+01  0.9000E+01
    -42.843  0.0000E+00  0.0000E+00  0.9000E+01  0.9000E+01
    -42.566  0.0000E+00  0.0000E+00  0.9000E+01  0.9000E+01
    -42.288  0.0000E+00  0.0000E+00  0.9000E+01  0.9000E+01
    -42.011  0.0000E+00  0.0000E+00  0.9000E+01  0.9000E+01
    -41.734  0.0000E+00  0.0000E+00  0.9000E+01  0.9000E+01
    -41.456  0.0000E+00  0.0000E+00  0.9000E+01  0.9000E+01
    -41.179  0.0000E+00  0.0000E+00  0.9000E+01  0.9000E+01
    -40.902  0.0000E+00  0.0000E+00  0.9000E+01  0.9000E+01
    -40.624  0.0000E+00  0.0000E+00  0.9000E+01  0.9000E+01
    -40.347  0.0000E+00  0.0000E+00  0.9000E+01  0.9000E+01
    -40.070  0.0000E+00  0.0000E+00  0.9000E+01  0.9000E+01
    -39.793  0.0000E+00  0.0000E+00  0.9000E+01  0.9000E+01
    -39.515  0.0000E+00  0.0000E+00  0.9000E+01  0.9000E+01
    -39.238  0.0000E+00  0.0000E+00  0.9000E+01  0.9000E+01
    -38.961  0.0000E+00  0.0000E+00  0.9000E+01  0.9000E+01
    -38.683  0.0000E+00  0.0000E+00  0.9000E+01  0.9000E+01
    -38.406  0.0000E+00  0.0000E+00  0.9000E+01  0.9000E+01
    -38.129  0.0000E+00  0.0000E+00  0.9000E+01  0.9000E+01
    -37.851  0.0000E+00  0.0000E+00  0.9000E+01  0.9000E+01
    -37.574  0.0000E+00  0.0000E+00  0.9000E+01  0.9000E+01
    -37.297  0.0000E+00  0.0000E+00  0.9000E+01  0.9000E+01
    -37.019  0.0000E+00  0.0000E+00  0.9000E+01  0.9000E+01
    -36.742  0.0000E+00  0.0000E+00  0.9000E+01  0.9000E+01
    -36.465  0.0000E+00  0.0000E+00  0.9000E+01  0.9000E+01
    -36.187  0.0000E+00  0.0000E+00  0.9000E+01  0.9000E+01
    -35.910  0.0000E+00  0.0000E+00  0.9000E+01  0.9000E+01
    -35.633  0.0000E+00  0.0000E+00  0.9000E+01  0.9000E+01
    -35.355  0.0000E+00  0.0000E+00  0.9000E+01  0.9000E+01
    -35.078  0.0000E+00  0.0000E+00  0.9000E+01  0.9000E+01
    -34.801  0.0000E+00  0.0000E+00  0.9000E+01  0.9000E+01
    -34.524  0.0000E+00  0.0000E+00  0.9000E+01  0.9000E+01
    -34.246  0.0000E+00  0.0000E+00  0.9000E+01  0.9000E+01
    -33.969  0.0000E+00  0.0000E+00  0.9000E+01  0.9000E+01
    -33.692  0.0000E+00  0.0000E+00  0.9000E+01  0.9000E+01
    -33.414  0.0000E+00  0.0000E+00  0.9000E+01  0.9000E+01
    -33.137  0.0000E+00  0.0000E+00  0.9000E+01  0.9000E+01
    -32.860  0.0000E+00  0.0000E+00  0.9000E+01  0.9000E+01
    -32.582  0.0000E+00  0.0000E+00  0.9000E+01  0.9000E+01
    -32.305  0.0000E+00  0.0000E+00  0.9000E+01  0.9000E+01
    -32.028  0.0000E+00  0.0000E+00  0.9000E+01  0.9000E+01
    -31.750  0.0000E+00  0.0000E+00  0.9000E+01  0.9000E+01
    -31.473  0.0000E+00  0.0000E+00  0.9000E+01  0.9000E+01
    -31.196  0.0000E+00  0.0000E+00  0.9000E+01  0.9000E+01
    -30.918  0.0000E+00  0.0000E+00  0.9000E+01  0.9000E+01
    -30.641  0.0000E+00  0.0000E+00  0.9000E+01  0.9000E+01
    -30.364  0.0000E+00  0.0000E+00  0.9000E+01  0.9000E+01
    -30.086  0.0000E+00  0.0000E+00  0.9000E+01  0.9000E+01
    -29.809  0.0000E+00  0.0000E+00  0.9000E+01  0.9000E+01
    -29.532  0.0000E+00  0.0000E+00  0.9000E+01  0.9000E+01
    -29.255  0.0000E+00  0.0000E+00  0.9000E+01  0.9000E+01
    -28.977  0.0000E+00  0.0000E+00  0.9000E+01  0.9000E+01
    -28.700  0.0000E+00  0.0000E+00  0.9000E+01  0.9000E+01
    -28.423  0.0000E+00  0.0000E+00  0.9000E+01  0.9000E+01
    -28.145  0.0000E+00  0.0000E+00  0.9000E+01  0.9000E+01
    -27.868  0.0000E+00  0.0000E+00  0.9000E+01  0.9000E+01
    -27.591  0.0000E+00  0.0000E+00  0.9000E+01  0.9000E+01
    -27.313  0.0000E+00  0.0000E+00  0.9000E+01  0.9000E+01
    -27.036  0.0000E+00  0.0000E+00  0.9000E+01  0.9000E+01
    -26.759  0.0000E+00  0.0000E+00  0.9000E+01  0.9000E+01
    -26.481  0.0000E+00  0.0000E+00  0.9000E+01  0.9000E+01
    -26.204  0.0000E+00  0.0000E+00  0.9000E+01  0.9000E+01
    -25.927  0.0000E+00  0.0000E+00  0.9000E+01  0.9000E+01
    -25.649  0.0000E+00  0.0000E+00  0.9000E+01  0.9000E+01
    -25.372  0.0000E+00  0.0000E+00  0.9000E+01  0.9000E+01
    -25.095  0.0000E+00  0.0000E+00  0.9000E+01  0.9000E+01
    -24.817  0.0000E+00  0.0000E+00  0.9000E+01  0.9000E+01
    -24.540  0.0000E+00  0.0000E+00  0.9000E+01  0.9000E+01
    -24.263  0.0000E+00  0.0000E+00  0.9000E+01  0.9000E+01
    -23.986  0.0000E+00  0.0000E+00  0.9000E+01  0.9000E+01
    -23.708  0.0000E+00  0.0000E+00  0.9000E+01  0.9000E+01
    -23.431  0.0000E+00  0.0000E+00  0.9000E+01  0.9000E+01
    -23.154  0.0000E+00  0.0000E+00  0.9000E+01  0.9000E+01
    -22.876  0.0000E+00  0.0000E+00  0.9000E+01  0.9000E+01
    -22.599  0.0000E+00  0.0000E+00  0.9000E+01  0.9000E+01
    -22.322  0.0000E+00  0.0000E+00  0.9000E+01  0.9000E+01
    -22.044  0.0000E+00  0.0000E+00  0.9000E+01  0.9000E+01
    -21.767  0.0000E+00  0.0000E+00  0.9000E+01  0.9000E+01
    -21.490  0.0000E+00  0.0000E+00  0.9000E+01  0.9000E+01
    -21.212  0.0000E+00  0.0000E+00  0.9000E+01  0.9000E+01
    -20.935  0.0000E+00  0.0000E+00  0.9000E+01  0.9000E+01
    -20.658  0.0000E+00  0.0000E+00  0.9000E+01  0.9000E+01
    -20.380  0.0000E+00  0.0000E+00  0.9000E+01  0.9000E+01
    -20.103  0.0000E+00  0.0000E+00  0.9000E+01  0.9000E+01
    -19.826  0.0000E+00  0.0000E+00  0.9000E+01  0.9000E+01
    -19.548  0.0000E+00  0.0000E+00  0.9000E+01  0.9000E+01
    -19.271  0.0000E+00  0.0000E+00  0.9000E+01  0.9000E+01
    -18.994  0.0000E+00  0.0000E+00  0.9000E+01  0.9000E+01
    -18.717  0.0000E+00  0.0000E+00  0.9000E+01  0.9000E+01
    -18.439  0.0000E+00  0.0000E+00  0.9000E+01  0.9000E+01
    -18.162  0.0000E+00  0.0000E+00  0.9000E+01  0.9000E+01
    -17.885  0.0000E+00  0.0000E+00  0.9000E+01  0.9000E+01
    -17.607  0.0000E+00  0.0000E+00  0.9000E+01  0.9000E+01
    -17.330  0.0000E+00  0.0000E+00  0.9000E+01  0.9000E+01
    -17.053  0.0000E+00  0.0000E+00  0.9000E+01  0.9000E+01
    -16.775  0.0000E+00  0.0000E+00  0.9000E+01  0.9000E+01
    -16.498  0.0000E+00  0.0000E+00  0.9000E+01  0.9000E+01
    -16.221  0.0000E+00  0.0000E+00  0.9000E+01  0.9000E+01
    -15.943  0.0000E+00  0.0000E+00  0.9000E+01  0.9000E+01
    -15.666  0.0000E+00  0.0000E+00  0.9000E+01  0.9000E+01
    -15.389  0.0000E+00  0.0000E+00  0.9000E+01  0.9000E+01
    -15.111  0.0000E+00  0.0000E+00  0.9000E+01  0.9000E+01
    -14.834  0.0000E+00  0.0000E+00  0.9000E+01  0.9000E+01
    -14.557  0.0000E+00  0.0000E+00  0.9000E+01  0.9000E+01
    -14.279  0.0000E+00  0.0000E+00  0.9000E+01  0.9000E+01
    -14.002  0.0000E+00  0.0000E+00  0.9000E+01  0.9000E+01
    -13.725  0.0000E+00  0.0000E+00  0.9000E+01  0.9000E+01
    -13.448  0.0000E+00  0.0000E+00  0.9000E+01  0.9000E+01
    -13.170  0.0000E+00  0.0000E+00  0.9000E+01  0.9000E+01
    -12.893  0.0000E+00  0.0000E+00  0.9000E+01  0.9000E+01
    -12.616  0.0000E+00  0.0000E+00  0.9000E+01  0.9000E+01
    -12.338  0.0000E+00  0.0000E+00  0.9000E+01  0.9000E+01
    -12.061  0.0000E+00  0.0000E+00  0.9000E+01  0.9000E+01
    -11.784  0.0000E+00  0.0000E+00  0.9000E+01  0.9000E+01
    -11.506  0.0000E+00  0.0000E+00  0.9000E+01  0.9000E+01
    -11.229  0.0000E+00  0.0000E+00  0.9000E+01  0.9000E+01
    -10.952  0.0000E+00  0.0000E+00  0.9000E+01  0.9000E+01
    -10.674  0.0000E+00  0.0000E+00  0.9000E+01  0.9000E+01
    -10.397  0.0000E+00  0.0000E+00  0.9000E+01  0.9000E+01
    -10.120  0.0000E+00  0.0000E+00  0.9000E+01  0.9000E+01
     -9.842  0.0000E+00  0.0000E+00  0.9000E+01  0.9000E+01
     -9.565  0.0000E+00  0.0000E+00  0.9000E+01  0.9000E+01
     -9.288  0.0000E+00  0.0000E+00  0.9000E+01  0.9000E+01
     -9.010  0.0000E+00  0.0000E+00  0.9000E+01  0.9000E+01
     -8.733  0.0000E+00  0.0000E+00  0.9000E+01  0.9000E+01
     -8.456  0.0000E+00  0.0000E+00  0.9000E+01  0.9000E+01
     -8.179  0.0000E+00  0.0000E+00  0.9000E+01  0.9000E+01
     -7.901  0.0000E+00  0.0000E+00  0.9000E+01  0.9000E+01
     -7.624  0.0000E+00  0.0000E+00  0.9000E+01  0.9000E+01
     -7.347  0.0000E+00  0.0000E+00  0.9000E+01  0.9000E+01
     -7.069  0.0000E+00  0.0000E+00  0.9000E+01  0.9000E+01
     -6.792  0.0000E+00  0.0000E+00  0.9000E+01  0.9000E+01
     -6.515  0.0000E+00  0.0000E+00  0.9000E+01  0.9000E+01
     -6.237  0.0000E+00  0.0000E+00  0.9000E+01  0.9000E+01
     -5.960  0.0000E+00  0.0000E+00  0.9000E+01  0.9000E+01
     -5.683  0.0000E+00  0.0000E+00  0.9000E+01  0.9000E+01
     -5.405  0.0000E+00  0.0000E+00  0.9000E+01  0.9000E+01
     -5.128  0.0000E+00  0.0000E+00  0.9000E+01  0.9000E+01
     -4.851  0.0000E+00  0.0000E+00  0.9000E+01  0.9000E+01
     -4.573  0.0000E+00  0.0000E+00  0.9000E+01  0.9000E+01
     -4.296  0.0000E+00  0.0000E+00  0.9000E+01  0.9000E+01
     -4.019  0.0000E+00  0.0000E+00  0.9000E+01  0.9000E+01
     -3.741  0.0000E+00  0.0000E+00  0.9000E+01  0.9000E+01
     -3.464  0.0000E+00  0.0000E+00  0.9000E+01  0.9000E+01
     -3.187  0.0000E+00  0.0000E+00  0.9000E+01  0.9000E+01
     -2.910  0.0000E+00  0.0000E+00  0.9000E+01  0.9000E+01
     -2.632  0.0000E+00  0.0000E+00  0.9000E+01  0.9000E+01
     -2.355  0.0000E+00  0.0000E+00  0.9000E+01  0.9000E+01
     -2.078  0.0000E+00  0.0000E+00  0.9000E+01  0.9000E+01
     -1.800  0.0000E+00  0.0000E+00  0.9000E+01  0.9000E+01
     -1.523  0.9154E-02  0.5054E-02  0.9000E+01  0.9000E+01
     -1.246  0.8678E-01  0.8128E-01  0.9014E+01  0.9011E+01
     -0.968  0.1060E+00  0.1034E+00  0.9041E+01  0.9038E+01
     -0.691  0.1453E+00  0.1411E+00  0.9075E+01  0.9071E+01
     -0.414  0.1725E+00  0.1717E+00  0.9120E+01  0.9115E+01
     -0.136  0.1939E+00  0.1915E+00  0.9171E+01  0.9165E+01
      0.141  0.2210E+00  0.2188E+00  0.9228E+01  0.9222E+01
      0.418  0.2503E+00  0.2476E+00  0.9293E+01  0.9287E+01
      0.696  0.4072E+00  0.4203E+00  0.9387E+01  0.9376E+01
      0.973  0.3447E+00  0.3464E+00  0.9487E+01  0.9479E+01
      1.250  0.3432E+00  0.3467E+00  0.9583E+01  0.9575E+01
      1.528  0.3105E+00  0.3159E+00  0.9673E+01  0.9667E+01
      1.805  0.2931E+00  0.2993E+00  0.9757E+01  0.9752E+01
      2.082  0.2825E+00  0.2897E+00  0.9836E+01  0.9833E+01
      2.359  0.4446E+00  0.4641E+00  0.9947E+01  0.9946E+01
      2.637  0.4174E+00  0.4227E+00  0.1006E+02  0.1007E+02
      2.914  0.3424E+00  0.3597E+00  0.1016E+02  0.1016E+02
      3.191  0.5256E+00  0.5633E+00  0.1028E+02  0.1029E+02
      3.469  0.6503E+00  0.7149E+00  0.1044E+02  0.1047E+02
      3.746  0.9154E+00  0.1030E+01  0.1068E+02  0.1073E+02
      4.023  0.9516E+00  0.9861E+00  0.1095E+02  0.1102E+02
      4.301  0.1019E+01  0.1271E+01  0.1122E+02  0.1132E+02
      4.578  0.9831E+00  0.2655E+01  0.1154E+02  0.1166E+02
      4.855  0.8300E+00  0.1714E+01  0.1191E+02  0.1206E+02
      5.133  0.1158E+01  0.7791E+01  0.1223E+02  0.1274E+02
      5.410  0.3794E+01  0.3367E+01  0.1334E+02  0.1412E+02
      5.687  0.2524E+01  0.3593E+01  0.1427E+02  0.1514E+02
      5.965  0.1792E+02  0.5240E+01  0.1545E+02  0.1616E+02
      6.242  0.2877E+01  0.5624E+01  0.1630E+02  0.1728E+02
      6.519  0.5566E+01  0.2432E+01  0.1733E+02  0.1843E+02
      6.797  0.2613E+01  0.2173E+01  0.1850E+02  0.1906E+02
      7.074  0.2801E+01  0.5036E+01  0.1917E+02  0.2009E+02
      7.351  0.8595E+01  0.7494E+01  0.2043E+02  0.2208E+02
      7.628  0.7056E+01  0.3615E+01  0.2248E+02  0.2365E+02
      7.906  0.2700E+01  0.4212E+01  0.2375E+02  0.2471E+02
      8.183  0.2407E+01  0.2015E+01  0.2478E+02  0.2568E+02
      8.460  0.2632E+01  0.4850E+00  0.2558E+02  0.2593E+02
      8.738  0.5665E+00  0.3326E+00  0.2596E+02  0.2604E+02
      9.015  0.2554E+00  0.3239E+00  0.2606E+02  0.2613E+02
      9.292  0.3751E+00  0.6627E+00  0.2614E+02  0.2627E+02
      9.570  0.8974E+00  0.1228E+01  0.2632E+02  0.2654E+02
      9.847  0.1094E+01  0.6954E+00  0.2664E+02  0.2680E+02
     10.124  0.7503E+00  0.7042E+00  0.2688E+02  0.2699E+02
     10.402  0.6960E+00  0.5960E+00  0.2709E+02  0.2718E+02
     10.679  0.6199E+00  0.6170E+00  0.2726E+02  0.2734E+02
     10.956  0.6683E+00  0.5194E+00  0.2745E+02  0.2752E+02
     11.234  0.4773E+00  0.4286E+00  0.2760E+02  0.2765E+02
     11.511  0.3590E+00  0.3214E+00  0.2773E+02  0.2776E+02
     11.788  0.2752E+00  0.2471E+00  0.2781E+02  0.2784E+02
     12.066  0.2595E+00  0.2820E+00  0.2788E+02  0.2791E+02
     12.343  0.3190E+00  0.4440E+00  0.2796E+02  0.2800E+02
     12.620  0.3176E+00  0.4093E+00  0.2806E+02  0.2811E+02
     12.897  0.5441E+00  0.6155E+00  0.2819E+02  0.2825E+02
     13.175  0.7311E+00  0.7594E+00  0.2837E+02  0.2844E+02
     13.452  0.7748E+00  0.6716E+00  0.2860E+02  0.2866E+02
     13.729  0.6344E+00  0.6153E+00  0.2879E+02  0.2884E+02
     14.007  0.6093E+00  0.6002E+00  0.2896E+02  0.2901E+02
     14.284  0.5835E+00  0.5745E+00  0.2913E+02  0.2917E+02
     14.561  0.5848E+00  0.5776E+00  0.2929E+02  0.2933E+02
     14.839  0.7167E+00  0.8038E+00  0.2947E+02  0.2951E+02
     15.116  0.7169E+00  0.6465E+00  0.2968E+02  0.2972E+02
     15.393  0.7625E+00  0.7790E+00  0.2987E+02  0.2991E+02
     15.671  0.8427E+00  0.8051E+00  0.3010E+02  0.3014E+02
     15.948  0.6881E+00  0.6603E+00  0.3031E+02  0.3034E+02
     16.225  0.6565E+00  0.6436E+00  0.3050E+02  0.3052E+02
     16.503  0.6032E+00  0.6068E+00  0.3067E+02  0.3069E+02
     16.780  0.6269E+00  0.6481E+00  0.3084E+02  0.3086E+02
     17.057  0.1005E+01  0.8709E+00  0.3107E+02  0.3110E+02
     17.335  0.1079E+01  0.9053E+00  0.3129E+02  0.3132E+02
     17.612  0.7439E+00  0.7271E+00  0.3152E+02  0.3154E+02
     17.889  0.7034E+00  0.6892E+00  0.3172E+02  0.3173E+02
     18.166  0.5720E+00  0.5628E+00  0.3190E+02  0.3191E+02
     18.444  0.7531E-01  0.2359E-01  0.3198E+02  0.3199E+02
     18.721  0.1482E-01  0.1445E-01  0.3199E+02  0.3199E+02
     18.998  0.1053E-01  0.1030E-01  0.3199E+02  0.3199E+02
     19.276  0.7780E-02  0.7602E-02  0.3200E+02  0.3200E+02
     19.553  0.4592E-02  0.4517E-02  0.3200E+02  0.3200E+02
     19.830  0.2227E-02  0.2230E-02  0.3200E+02  0.3200E+02
     20.108  0.7090E-03  0.7423E-03  0.3200E+02  0.3200E+02
     20.385  0.3670E-04  0.5279E-04  0.3200E+02  0.3200E+02
     20.662  0.0000E+00  0.0000E+00  0.3200E+02  0.3200E+02
     20.940  0.0000E+00  0.0000E+00  0.3200E+02  0.3200E+02
     21.217  0.0000E+00  0.0000E+00  0.3200E+02  0.3200E+02
     21.494  0.0000E+00  0.0000E+00  0.3200E+02  0.3200E+02
     21.772  0.0000E+00  0.0000E+00  0.3200E+02  0.3200E+02
     22.049  0.0000E+00  0.0000E+00  0.3200E+02  0.3200E+02
     22.326  0.0000E+00  0.0000E+00  0.3200E+02  0.3200E+02
     22.604  0.0000E+00  0.0000E+00  0.3200E+02  0.3200E+02
     22.881  0.0000E+00  0.0000E+00  0.3200E+02  0.3200E+02
     23.158  0.0000E+00  0.0000E+00  0.3200E+02  0.3200E+02
     23.435  0.0000E+00  0.0000E+00  0.3200E+02  0.3200E+02
     23.713  0.0000E+00  0.0000E+00  0.3200E+02  0.3200E+02
     23.990  0.0000E+00  0.0000E+00  0.3200E+02  0.3200E+02
     24.267  0.0000E+00  0.0000E+00  0.3200E+02  0.3200E+02
