 running on   24 total cores
 distrk:  each k-point on   24 cores,    1 groups
 distr:  one band on    6 cores,    4 groups
 using from now: INCAR     
 vasp.5.4.4.18Apr17-6-g9f103f2a35 (build Jan 03 2018 06:08:52) complex          
  
 POSCAR found :  2 types and       4 ions
 scaLAPACK will be used
 WARNING: for PREC=h ENMAX is automatically increase by 25 %
        this was not the case for versions prior to vasp.4.4
 WARNING: for PREC=h ENMAX is automatically increase by 25 %
        this was not the case for versions prior to vasp.4.4
 LDA part: xc-table for Pade appr. of Perdew
 POSCAR, INCAR and KPOINTS ok, starting setup
 FFT: planning ...
 WAVECAR not read
 entering main loop
       N       E                     dE             d eps       ncg     rms          rms(c)
DAV:   1     0.597488867375E+03    0.59749E+03   -0.31763E+04  3072   0.199E+03
DAV:   2     0.398620123970E+01   -0.59350E+03   -0.57458E+03  2656   0.611E+02
DAV:   3    -0.256874572456E+02   -0.29674E+02   -0.27930E+02  2936   0.159E+02
DAV:   4    -0.263197440060E+02   -0.63229E+00   -0.62995E+00  2768   0.226E+01
DAV:   5    -0.263364362316E+02   -0.16692E-01   -0.16692E-01  3096   0.377E+00    0.197E+01
DAV:   6    -0.282866326352E+02   -0.19502E+01   -0.59908E+01  2872   0.102E+02    0.218E+01
DAV:   7    -0.228119344085E+02    0.54747E+01   -0.22932E+01  2848   0.589E+01    0.198E+00
DAV:   8    -0.227942032343E+02    0.17731E-01   -0.25415E-01  2688   0.410E+00    0.112E+00
DAV:   9    -0.227739609974E+02    0.20242E-01   -0.42836E-02  3112   0.174E+00    0.439E-01
DAV:  10    -0.227755963470E+02   -0.16353E-02   -0.20588E-03  2808   0.544E-01    0.910E-02
DAV:  11    -0.227755994050E+02   -0.30580E-05   -0.36774E-04  3024   0.215E-01    0.370E-02
DAV:  12    -0.227755978158E+02    0.15892E-05   -0.39386E-05  2952   0.559E-02    0.143E-02
DAV:  13    -0.227756003458E+02   -0.25300E-05   -0.40268E-06  2832   0.192E-02    0.661E-03
DAV:  14    -0.227755997525E+02    0.59332E-06   -0.89453E-07  2888   0.103E-02    0.156E-03
DAV:  15    -0.227755994079E+02    0.34456E-06   -0.81256E-08  2400   0.262E-03    0.112E-03
DAV:  16    -0.227755993899E+02    0.18035E-07   -0.14057E-08  1712   0.136E-03    0.225E-04
DAV:  17    -0.227755993810E+02    0.88512E-08   -0.28994E-09  1376   0.467E-04
   1 F= -.22775599E+02 E0= -.22775796E+02  d E =-.227756E+02  mag=     0.7598
 curvature:   0.00 expect dE= 0.000E+00 dE for cont linesearch  0.000E+00
 trial: gam= 0.00000 g(F)=  0.000E+00 g(S)=  0.152E+00 ort = 0.000E+00 (trialstep = 0.100E+01)
 search vector abs. value=  0.152E+00
 bond charge predicted
       N       E                     dE             d eps       ncg     rms          rms(c)
DAV:   1    -0.366660542379E+02   -0.13890E+02   -0.12964E+02  2592   0.165E+02    0.354E+01
DAV:   2    -0.387315540497E+02   -0.20655E+01   -0.21590E+02  2896   0.163E+02    0.327E+01
DAV:   3    -0.228879887334E+02    0.15844E+02   -0.55442E+01  2864   0.953E+01    0.444E+00
DAV:   4    -0.228001099906E+02    0.87879E-01   -0.16726E+00  2704   0.115E+01    0.154E+00
DAV:   5    -0.227876277934E+02    0.12482E-01   -0.32107E-02  3064   0.170E+00    0.744E-01
DAV:   6    -0.227886498937E+02   -0.10221E-02   -0.10897E-02  2952   0.103E+00    0.211E-01
DAV:   7    -0.227896955071E+02   -0.10456E-02   -0.75318E-04  2880   0.305E-01    0.103E-01
DAV:   8    -0.227896862714E+02    0.92356E-05   -0.63853E-05  3128   0.772E-02    0.541E-02
DAV:   9    -0.227896859912E+02    0.28029E-06   -0.15381E-05  3008   0.355E-02    0.115E-02
DAV:  10    -0.227896875404E+02   -0.15492E-05   -0.28565E-06  2872   0.175E-02    0.233E-03
DAV:  11    -0.227896878957E+02   -0.35527E-06   -0.29803E-07  2752   0.577E-03    0.231E-03
DAV:  12    -0.227896877873E+02    0.10840E-06   -0.75861E-08  2440   0.325E-03    0.551E-04
DAV:  13    -0.227896876943E+02    0.92941E-07   -0.55174E-09  1384   0.773E-04    0.127E-04
DAV:  14    -0.227896876843E+02    0.99735E-08   -0.15096E-09  1296   0.417E-04
   2 F= -.22789688E+02 E0= -.22789687E+02  d E =-.140883E-01  mag=    -0.7907
 trial-energy change:   -0.014088  1 .order   -0.017722   -0.151693    0.116249
 step:   0.5460(harm=  0.5661)  dis= 0.00000  next Energy=   -22.816418 (dE=-0.408E-01)
 bond charge predicted
       N       E                     dE             d eps       ncg     rms          rms(c)
DAV:   1    -0.257416767500E+02   -0.29520E+01   -0.27448E+01  2656   0.698E+01    0.170E+01
DAV:   2    -0.272111974321E+02   -0.14695E+01   -0.43471E+01  2832   0.873E+01    0.187E+01
DAV:   3    -0.228458247270E+02    0.43654E+01   -0.16884E+01  2840   0.496E+01    0.214E+00
DAV:   4    -0.228265691904E+02    0.19256E-01   -0.20797E-01  2648   0.361E+00    0.127E+00
DAV:   5    -0.228156924315E+02    0.10877E-01   -0.29311E-02  2976   0.159E+00    0.240E-01
DAV:   6    -0.228158951932E+02   -0.20276E-03   -0.12406E-03  2784   0.401E-01    0.885E-02
DAV:   7    -0.228159719201E+02   -0.76727E-04   -0.20095E-04  2832   0.143E-01    0.327E-02
DAV:   8    -0.228159765833E+02   -0.46632E-05   -0.25901E-05  2832   0.543E-02    0.107E-02
DAV:   9    -0.228159762170E+02    0.36630E-06   -0.24877E-06  2792   0.161E-02    0.584E-03
DAV:  10    -0.228159747643E+02    0.14527E-05   -0.45117E-07  3160   0.731E-03    0.157E-03
DAV:  11    -0.228159745988E+02    0.16554E-06   -0.50259E-08  2392   0.246E-03    0.562E-04
DAV:  12    -0.228159746004E+02   -0.16480E-08   -0.72863E-09  1328   0.111E-03
   3 F= -.22815975E+02 E0= -.22816097E+02  d E =-.403752E-01  mag=    -0.7790
 curvature:  -0.28 expect dE=-0.222E-06 dE for cont linesearch -0.222E-06
 trial: gam= 0.00000 g(F)=  0.135E-65 g(S)=  0.787E-06 ort =-0.346E-03 (trialstep = 0.909E+00)
 search vector abs. value=  0.787E-06
 reached required accuracy - stopping structural energy minimisation
 writing wavefunctions
