       N       E                     dE             d eps       ncg     rms          rms(c)
DAV:   1     0.632682591537E+03    0.63268E+03   -0.32541E+04 12888   0.157E+03
DAV:   2     0.185657187741E+01   -0.63083E+03   -0.60097E+03 11224   0.506E+02
DAV:   3    -0.341774307354E+02   -0.36034E+02   -0.34287E+02 12960   0.140E+02
DAV:   4    -0.350505086988E+02   -0.87308E+00   -0.87143E+00 11976   0.213E+01
DAV:   5    -0.350751082592E+02   -0.24600E-01   -0.24598E-01 13600   0.377E+00    0.272E+01
DAV:   6    -0.535978873433E+02   -0.18523E+02   -0.16608E+02 12800   0.154E+02    0.385E+01
DAV:   7    -0.297362969298E+02    0.23862E+02   -0.55669E+01 13096   0.988E+01    0.890E+00
DAV:   8    -0.295289217984E+02    0.20738E+00   -0.76859E+00 15536   0.324E+01    0.841E+00
DAV:   9    -0.293304495696E+02    0.19847E+00   -0.24479E+00 13504   0.217E+01    0.396E+00
DAV:  10    -0.292568745375E+02    0.73575E-01   -0.95508E-01 14536   0.115E+01    0.301E+00
DAV:  11    -0.292057391840E+02    0.51135E-01   -0.25971E-01 12808   0.829E+00    0.102E+00
DAV:  12    -0.291977622460E+02    0.79769E-02   -0.28548E-02 13656   0.153E+00    0.518E-01
DAV:  13    -0.291958160960E+02    0.19461E-02   -0.15699E-02 15136   0.113E+00    0.200E-01
DAV:  14    -0.291956983120E+02    0.11778E-03   -0.15468E-03 12424   0.403E-01    0.107E-01
DAV:  15    -0.291956120578E+02    0.86254E-04   -0.42544E-04 15344   0.167E-01    0.182E-02
DAV:  16    -0.291956150297E+02   -0.29718E-05   -0.28107E-05 12208   0.444E-02    0.855E-03
DAV:  17    -0.291956146387E+02    0.39098E-06   -0.24110E-06 15824   0.142E-02    0.320E-03
DAV:  18    -0.291956144091E+02    0.22957E-06   -0.31547E-07 12160   0.558E-03    0.140E-03
DAV:  19    -0.291956142879E+02    0.12122E-06   -0.65590E-08 11312   0.259E-03    0.420E-04
DAV:  20    -0.291956142519E+02    0.35978E-07   -0.65943E-09  6632   0.862E-04    0.159E-04
DAV:  21    -0.291956142464E+02    0.55134E-08   -0.14466E-09  6336   0.385E-04
   1 F= -.29195614E+02 E0= -.29195439E+02  d E =-.291956E+02  mag=     0.0000
       N       E                     dE             d eps       ncg     rms          rms(c)
DAV:   1    -0.170921613294E+03   -0.14173E+03   -0.19035E+03 11008   0.593E+02    0.895E+01
DAV:   2    -0.754661381898E+02    0.95455E+02   -0.83944E+02 13152   0.249E+02    0.584E+01
DAV:   3    -0.559317467544E+02    0.19534E+02   -0.33205E+02 12728   0.183E+02    0.422E+01
DAV:   4    -0.324471037124E+02    0.23485E+02   -0.70349E+01 13176   0.921E+01    0.116E+01
DAV:   5    -0.311792936374E+02    0.12678E+01   -0.41924E+00 14848   0.251E+01    0.890E+00
DAV:   6    -0.305576154909E+02    0.62168E+00   -0.55047E+00 13392   0.226E+01    0.704E+00
DAV:   7    -0.301127311600E+02    0.44488E+00   -0.15738E+00 15128   0.116E+01    0.551E+00
DAV:   8    -0.300176128871E+02    0.95118E-01   -0.48673E-01 14200   0.631E+00    0.282E+00
DAV:   9    -0.299490112214E+02    0.68602E-01   -0.56514E-01 14184   0.659E+00    0.146E+00
DAV:  10    -0.299374555822E+02    0.11556E-01   -0.10159E-01 12208   0.350E+00    0.401E-01
DAV:  11    -0.299369336617E+02    0.52192E-03   -0.72984E-03 13592   0.100E+00    0.255E-01
DAV:  12    -0.299365682791E+02    0.36538E-03   -0.30241E-03 13008   0.632E-01    0.110E-01
DAV:  13    -0.299365242039E+02    0.44075E-04   -0.42822E-04 12304   0.214E-01    0.330E-02
DAV:  14    -0.299365183409E+02    0.58630E-05   -0.44134E-05 15264   0.621E-02    0.127E-02
DAV:  15    -0.299365190129E+02   -0.67207E-06   -0.11513E-05 12824   0.281E-02    0.654E-03
DAV:  16    -0.299365184524E+02    0.56055E-06   -0.21542E-06 12512   0.169E-02    0.244E-03
DAV:  17    -0.299365183885E+02    0.63907E-07   -0.32683E-07 12264   0.699E-03    0.531E-04
DAV:  18    -0.299365183551E+02    0.33364E-07   -0.15225E-08  6776   0.131E-03    0.245E-04
DAV:  19    -0.299365183422E+02    0.12897E-07   -0.29917E-09  6232   0.469E-04    0.648E-05
DAV:  20    -0.299365183395E+02    0.26885E-08   -0.78145E-10  6024   0.259E-04
   2 F= -.29936518E+02 E0= -.29936416E+02  d E =-.740904E+00  mag=    -0.0000
       N       E                     dE             d eps       ncg     rms          rms(c)
DAV:   1    -0.709664687400E+02   -0.41030E+02   -0.37339E+02 12144   0.206E+02    0.675E+01
DAV:   2    -0.130027912425E+03   -0.59061E+02   -0.74394E+02 12144   0.336E+02    0.613E+01
DAV:   3    -0.394876374789E+02    0.90540E+02   -0.25772E+02 12608   0.149E+02    0.209E+01
DAV:   4    -0.371821896400E+02    0.23054E+01   -0.36564E+00 12128   0.159E+01    0.182E+01
DAV:   5    -0.314187151854E+02    0.57635E+01   -0.63829E+00 13984   0.327E+01    0.889E+00
DAV:   6    -0.306414185846E+02    0.77730E+00   -0.34091E+00 14000   0.258E+01    0.440E+00
DAV:   7    -0.306218360666E+02    0.19583E-01   -0.26607E+00 13984   0.174E+01    0.554E+00
DAV:   8    -0.305963389781E+02    0.25497E-01   -0.36349E-01 12544   0.692E+00    0.488E+00
DAV:   9    -0.304004249917E+02    0.19591E+00   -0.11197E+00 14464   0.829E+00    0.170E+00
DAV:  10    -0.303823127440E+02    0.18112E-01   -0.84896E-02 13440   0.403E+00    0.545E-01
DAV:  11    -0.303823315078E+02   -0.18764E-04   -0.83361E-03 13696   0.103E+00    0.606E-01
DAV:  12    -0.303796972745E+02    0.26342E-02   -0.10618E-02 13680   0.112E+00    0.701E-02
DAV:  13    -0.303797075261E+02   -0.10252E-04   -0.86699E-04 13728   0.220E-01    0.416E-02
DAV:  14    -0.303797165888E+02   -0.90627E-05   -0.24299E-04 12328   0.171E-01    0.458E-02
DAV:  15    -0.303797030521E+02    0.13537E-04   -0.95571E-05 13392   0.111E-01    0.107E-02
DAV:  16    -0.303797024641E+02    0.58795E-06   -0.48313E-06 13376   0.225E-02    0.400E-03
DAV:  17    -0.303797024603E+02    0.38635E-08   -0.58962E-07 15680   0.714E-03    0.258E-03
DAV:  18    -0.303797024498E+02    0.10496E-07   -0.30669E-07 12448   0.561E-03    0.303E-04
DAV:  19    -0.303797024594E+02   -0.96534E-08   -0.11666E-08  6544   0.131E-03
   3 F= -.30379702E+02 E0= -.30379926E+02  d E =-.118409E+01  mag=     0.0000
       N       E                     dE             d eps       ncg     rms          rms(c)
DAV:   1    -0.313680555920E+02   -0.98835E+00   -0.23511E+01 12640   0.112E+02    0.129E+01
DAV:   2    -0.360717660542E+02   -0.47037E+01   -0.47935E+01 12712   0.697E+01    0.196E+01
DAV:   3    -0.305684421537E+02    0.55033E+01   -0.12518E+01 13096   0.510E+01    0.247E+00
DAV:   4    -0.307083651884E+02   -0.13992E+00   -0.17021E+00 13856   0.169E+01    0.556E+00
DAV:   5    -0.305653661136E+02    0.14300E+00   -0.13453E+00 13624   0.139E+01    0.262E+00
DAV:   6    -0.305168730016E+02    0.48493E-01   -0.29686E-01 14040   0.539E+00    0.528E-01
DAV:   7    -0.305181556174E+02   -0.12826E-02   -0.40704E-02 13336   0.267E+00    0.669E-01
DAV:   8    -0.305154436913E+02    0.27119E-02   -0.13330E-02 12664   0.152E+00    0.111E-01
DAV:   9    -0.305154077152E+02    0.35976E-04   -0.98210E-04 13312   0.286E-01    0.488E-02
DAV:  10    -0.305154222523E+02   -0.14537E-04   -0.10150E-04 12936   0.812E-02    0.347E-02
DAV:  11    -0.305154138714E+02    0.83809E-05   -0.52383E-05 15112   0.875E-02    0.672E-03
DAV:  12    -0.305154134718E+02    0.39962E-06   -0.42831E-06 12320   0.200E-02    0.175E-03
DAV:  13    -0.305154134005E+02    0.71281E-07   -0.20018E-07 13352   0.475E-03    0.101E-03
DAV:  14    -0.305154133495E+02    0.50981E-07   -0.47783E-08 10504   0.246E-03    0.228E-04
DAV:  15    -0.305154133448E+02    0.46857E-08   -0.42270E-09  6408   0.742E-04
   4 F= -.30515413E+02 E0= -.30515442E+02  d E =-.135711E+00  mag=    -0.0000
       N       E                     dE             d eps       ncg     rms          rms(c)
DAV:   1    -0.306581810997E+02   -0.14277E+00   -0.37707E+00 12624   0.438E+01    0.489E+00
DAV:   2    -0.313439132757E+02   -0.68573E+00   -0.63273E+00 12928   0.255E+01    0.843E+00
DAV:   3    -0.305507440072E+02    0.79317E+00   -0.27525E+00 12928   0.200E+01    0.203E+00
DAV:   4    -0.305564620641E+02   -0.57181E-02   -0.40537E-01 13232   0.874E+00    0.193E+00
DAV:   5    -0.305286492847E+02    0.27813E-01   -0.10784E-01 14464   0.474E+00    0.382E-01
DAV:   6    -0.305309283549E+02   -0.22791E-02   -0.28622E-02 15248   0.218E+00    0.760E-01
DAV:   7    -0.305276891462E+02    0.32392E-02   -0.17676E-02 12912   0.190E+00    0.778E-02
DAV:   8    -0.305276659456E+02    0.23201E-04   -0.73997E-04 12512   0.227E-01    0.325E-02
DAV:   9    -0.305276664782E+02   -0.53255E-06   -0.44701E-05 12368   0.571E-02    0.106E-02
DAV:  10    -0.305276665997E+02   -0.12147E-06   -0.35227E-06 12592   0.196E-02    0.310E-03
DAV:  11    -0.305276662477E+02    0.35200E-06   -0.36537E-07 12128   0.447E-03    0.911E-04
DAV:  12    -0.305276661842E+02    0.63474E-07   -0.35734E-08  9776   0.180E-03    0.176E-04
DAV:  13    -0.305276661656E+02    0.18536E-07   -0.58330E-09  6688   0.718E-04    0.917E-05
DAV:  14    -0.305276661602E+02    0.54279E-08   -0.15319E-09  6272   0.387E-04
   5 F= -.30527666E+02 E0= -.30527371E+02  d E =-.147964E+00  mag=     0.0000
       N       E                     dE             d eps       ncg     rms          rms(c)
DAV:   1    -0.305925952677E+02   -0.64929E-01   -0.71873E+00 13008   0.840E+01    0.613E+00
DAV:   2    -0.320933159222E+02   -0.15007E+01   -0.15165E+01 13024   0.336E+01    0.133E+01
DAV:   3    -0.307861281936E+02    0.13072E+01   -0.96156E+00 12704   0.285E+01    0.677E+00
DAV:   4    -0.305593282493E+02    0.22680E+00   -0.15432E+00 12736   0.140E+01    0.154E+00
DAV:   5    -0.305486588910E+02    0.10669E-01   -0.86747E-02 12640   0.293E+00    0.916E-01
DAV:   6    -0.305483961377E+02    0.26275E-03   -0.53117E-02 13024   0.323E+00    0.921E-01
DAV:   7    -0.305427499601E+02    0.56462E-02   -0.19067E-02 12800   0.213E+00    0.154E-01
DAV:   8    -0.305426717112E+02    0.78249E-04   -0.16526E-03 13632   0.306E-01    0.382E-02
DAV:   9    -0.305426631145E+02    0.85966E-05   -0.18876E-04 12288   0.150E-01    0.321E-02
DAV:  10    -0.305426584683E+02    0.46463E-05   -0.34620E-05 12816   0.645E-02    0.797E-03
DAV:  11    -0.305426582829E+02    0.18533E-06   -0.29250E-06 12224   0.219E-02    0.190E-03
DAV:  12    -0.305426583776E+02   -0.94638E-07   -0.21218E-07 14080   0.508E-03    0.565E-04
DAV:  13    -0.305426584196E+02   -0.41993E-07   -0.32882E-08  9456   0.186E-03    0.398E-04
DAV:  14    -0.305426584330E+02   -0.13395E-07   -0.52729E-09  6304   0.805E-04    0.583E-05
DAV:  15    -0.305426584345E+02   -0.15334E-08   -0.83758E-10  5968   0.320E-04
   6 F= -.30542658E+02 E0= -.30542204E+02  d E =-.149923E-01  mag=     0.0000
       N       E                     dE             d eps       ncg     rms          rms(c)
DAV:   1    -0.305629700773E+02   -0.20312E-01   -0.21630E+00 13040   0.465E+01    0.347E+00
DAV:   2    -0.310526574849E+02   -0.48969E+00   -0.45241E+00 12944   0.191E+01    0.749E+00
DAV:   3    -0.306060300618E+02    0.44663E+00   -0.29184E+00 12784   0.165E+01    0.347E+00
DAV:   4    -0.305485987577E+02    0.57431E-01   -0.41375E-01 12592   0.799E+00    0.747E-01
DAV:   5    -0.305460071682E+02    0.25916E-02   -0.21751E-02 12640   0.135E+00    0.408E-01
DAV:   6    -0.305472241079E+02   -0.12169E-02   -0.17196E-02 13344   0.196E+00    0.635E-01
DAV:   7    -0.305447624317E+02    0.24617E-02   -0.97471E-03 12880   0.145E+00    0.742E-02
DAV:   8    -0.305447492247E+02    0.13207E-04   -0.50901E-04 13376   0.157E-01    0.201E-02
DAV:   9    -0.305447467150E+02    0.25097E-05   -0.36166E-05 12544   0.660E-02    0.134E-02
DAV:  10    -0.305447465782E+02    0.13684E-06   -0.55871E-06 13728   0.242E-02    0.394E-03
DAV:  11    -0.305447466532E+02   -0.74990E-07   -0.77919E-07 12288   0.106E-02    0.964E-04
DAV:  12    -0.305447466964E+02   -0.43270E-07   -0.51182E-08 11336   0.286E-03    0.213E-04
DAV:  13    -0.305447467196E+02   -0.23207E-07   -0.78269E-09  6624   0.913E-04    0.229E-04
DAV:  14    -0.305447467263E+02   -0.66739E-08   -0.26444E-09  5952   0.615E-04
   7 F= -.30544747E+02 E0= -.30544217E+02  d E =-.170806E-01  mag=    -0.0000
       N       E                     dE             d eps       ncg     rms          rms(c)
DAV:   1    -0.304580049375E+02    0.86742E-01   -0.62411E+00 13008   0.861E+01    0.480E+00
DAV:   2    -0.313460387346E+02   -0.88803E+00   -0.74291E+00 12896   0.265E+01    0.827E+00
DAV:   3    -0.305626531382E+02    0.78339E+00   -0.27645E+00 12608   0.181E+01    0.130E+00
DAV:   4    -0.305676122435E+02   -0.49591E-02   -0.17035E-01 15264   0.531E+00    0.151E+00
DAV:   5    -0.305530002852E+02    0.14612E-01   -0.51977E-02 12864   0.354E+00    0.449E-01
DAV:   6    -0.305514433328E+02    0.15570E-02   -0.93607E-03 12912   0.990E-01    0.249E-01
DAV:   7    -0.305512019933E+02    0.24134E-03   -0.28226E-03 12416   0.815E-01    0.110E-01
DAV:   8    -0.305510944736E+02    0.10752E-03   -0.54064E-04 12112   0.282E-01    0.547E-02
DAV:   9    -0.305510770119E+02    0.17462E-04   -0.67665E-05 14576   0.758E-02    0.948E-03
DAV:  10    -0.305510760054E+02    0.10066E-05   -0.71624E-06 12400   0.276E-02    0.396E-03
DAV:  11    -0.305510757627E+02    0.24270E-06   -0.14867E-06 12320   0.136E-02    0.165E-03
DAV:  12    -0.305510756088E+02    0.15386E-06   -0.19327E-07 12432   0.481E-03    0.341E-04
DAV:  13    -0.305510755860E+02    0.22874E-07   -0.15166E-08  7824   0.126E-03    0.230E-04
DAV:  14    -0.305510755828E+02    0.32123E-08   -0.36021E-09  6224   0.676E-04
   8 F= -.30551076E+02 E0= -.30550484E+02  d E =-.632886E-02  mag=     0.0000
       N       E                     dE             d eps       ncg     rms          rms(c)
DAV:   1    -0.305505781279E+02    0.49746E-03   -0.36303E-02 12976   0.650E+00    0.373E-01
DAV:   2    -0.305565530269E+02   -0.59749E-02   -0.48008E-02 12976   0.206E+00    0.743E-01
DAV:   3    -0.305513487892E+02    0.52042E-02   -0.22139E-02 12608   0.153E+00    0.209E-01
DAV:   4    -0.305511926009E+02    0.15619E-03   -0.22794E-03 12928   0.667E-01    0.986E-02
DAV:   5    -0.305511238201E+02    0.68781E-04   -0.19020E-04 12528   0.177E-01    0.371E-02
DAV:   6    -0.305511283721E+02   -0.45520E-05   -0.13599E-04 14176   0.154E-01    0.579E-02
DAV:   7    -0.305511098298E+02    0.18542E-04   -0.97794E-05 12592   0.141E-01    0.705E-03
DAV:   8    -0.305511092360E+02    0.59376E-06   -0.47030E-06 12208   0.188E-02    0.371E-03
DAV:   9    -0.305511089667E+02    0.26932E-06   -0.36783E-07 13360   0.519E-03    0.709E-04
DAV:  10    -0.305511089237E+02    0.43005E-07   -0.37227E-08 10624   0.194E-03    0.286E-04
DAV:  11    -0.305511089037E+02    0.19987E-07   -0.47648E-09  5904   0.833E-04    0.117E-04
DAV:  12    -0.305511088932E+02    0.10516E-07   -0.10695E-09  5664   0.396E-04    0.324E-05
DAV:  13    -0.305511088913E+02    0.19045E-08   -0.27107E-10  5648   0.190E-04
   9 F= -.30551109E+02 E0= -.30550515E+02  d E =-.636216E-02  mag=    -0.0000
       N       E                     dE             d eps       ncg     rms          rms(c)
DAV:   1    -0.305025995215E+02    0.48509E-01   -0.11754E+00 13920   0.402E+01    0.958E-01
DAV:   2    -0.305797736756E+02   -0.77174E-01   -0.74347E-01 12272   0.700E+00    0.169E+00
DAV:   3    -0.305584891374E+02    0.21285E-01   -0.17676E-01 12848   0.471E+00    0.912E-01
DAV:   4    -0.305552270671E+02    0.32621E-02   -0.34968E-02 12432   0.283E+00    0.409E-01
DAV:   5    -0.305539096268E+02    0.13174E-02   -0.32597E-03 12576   0.761E-01    0.157E-01
DAV:   6    -0.305536563177E+02    0.25331E-03   -0.79360E-04 13264   0.315E-01    0.349E-02
DAV:   7    -0.305536561466E+02    0.17108E-06   -0.14176E-04 13248   0.120E-01    0.267E-02
DAV:   8    -0.305536525572E+02    0.35894E-05   -0.24251E-05 12800   0.513E-02    0.648E-03
DAV:   9    -0.305536532153E+02   -0.65802E-06   -0.56314E-06 14960   0.325E-02    0.111E-02
DAV:  10    -0.305536526929E+02    0.52237E-06   -0.34251E-06 12720   0.266E-02    0.146E-03
DAV:  11    -0.305536527253E+02   -0.32431E-07   -0.18702E-07 11536   0.358E-03    0.620E-04
DAV:  12    -0.305536527237E+02    0.16062E-08   -0.17219E-08  6704   0.147E-03
  10 F= -.30553653E+02 E0= -.30553043E+02  d E =-.254383E-02  mag=     0.0000
       N       E                     dE             d eps       ncg     rms          rms(c)
DAV:   1    -0.305000469899E+02    0.53606E-01   -0.12505E+00 13936   0.414E+01    0.973E-01
DAV:   2    -0.305805281034E+02   -0.80481E-01   -0.78280E-01 12272   0.717E+00    0.169E+00
DAV:   3    -0.305596819611E+02    0.20846E-01   -0.18348E-01 12848   0.486E+00    0.947E-01
DAV:   4    -0.305561302299E+02    0.35517E-02   -0.37328E-02 12448   0.295E+00    0.420E-01
DAV:   5    -0.305547326126E+02    0.13976E-02   -0.35160E-03 12544   0.786E-01    0.161E-01
DAV:   6    -0.305544722319E+02    0.26038E-03   -0.84541E-04 13296   0.330E-01    0.437E-02
DAV:   7    -0.305545411147E+02   -0.68883E-04   -0.58031E-04 13808   0.338E-01    0.117E-01
DAV:   8    -0.305544672268E+02    0.73888E-04   -0.36905E-04 12800   0.275E-01    0.227E-02
DAV:   9    -0.305544649591E+02    0.22677E-05   -0.22990E-05 12928   0.393E-02    0.534E-03
DAV:  10    -0.305544651489E+02   -0.18977E-06   -0.12687E-06 13408   0.139E-02    0.165E-03
DAV:  11    -0.305544652443E+02   -0.95388E-07   -0.12283E-07 12432   0.353E-03    0.505E-04
DAV:  12    -0.305544652494E+02   -0.51350E-08   -0.13977E-08  6832   0.137E-03
  11 F= -.30554465E+02 E0= -.30553858E+02  d E =-.335636E-02  mag=    -0.0000
       N       E                     dE             d eps       ncg     rms          rms(c)
DAV:   1    -0.305577872572E+02   -0.33220E-02   -0.10762E+00 12784   0.322E+01    0.230E+00
DAV:   2    -0.307554846362E+02   -0.19770E+00   -0.16814E+00 13072   0.125E+01    0.435E+00
DAV:   3    -0.305676960643E+02    0.18779E+00   -0.80268E-01 12880   0.106E+01    0.152E+00
DAV:   4    -0.305594013648E+02    0.82947E-02   -0.12043E-01 12512   0.476E+00    0.593E-01
DAV:   5    -0.305563922186E+02    0.30091E-02   -0.98382E-03 14000   0.125E+00    0.181E-01
DAV:   6    -0.305569915876E+02   -0.59937E-03   -0.62490E-03 14384   0.106E+00    0.396E-01
DAV:   7    -0.305561259345E+02    0.86565E-03   -0.44925E-03 12800   0.982E-01    0.369E-02
DAV:   8    -0.305561208684E+02    0.50661E-05   -0.18180E-04 12160   0.103E-01    0.180E-02
DAV:   9    -0.305561198039E+02    0.10646E-05   -0.99207E-06 14880   0.275E-02    0.466E-03
DAV:  10    -0.305561195353E+02    0.26855E-06   -0.89981E-07 12240   0.939E-03    0.115E-03
DAV:  11    -0.305561194643E+02    0.70970E-07   -0.69937E-08 11504   0.286E-03    0.400E-04
DAV:  12    -0.305561194371E+02    0.27221E-07   -0.96500E-09  6896   0.110E-03    0.966E-05
DAV:  13    -0.305561194285E+02    0.86366E-08   -0.15516E-09  6000   0.386E-04
  12 F= -.30556119E+02 E0= -.30555474E+02  d E =-.165418E-02  mag=    -0.0000
       N       E                     dE             d eps       ncg     rms          rms(c)
DAV:   1    -0.305563033053E+02   -0.18387E-03   -0.98880E-02 12800   0.974E+00    0.684E-01
DAV:   2    -0.305736822918E+02   -0.17379E-01   -0.15150E-01 13056   0.374E+00    0.132E+00
DAV:   3    -0.305576809937E+02    0.16001E-01   -0.79090E-02 12944   0.322E+00    0.525E-01
DAV:   4    -0.305565264721E+02    0.11545E-02   -0.12225E-02 12368   0.164E+00    0.174E-01
DAV:   5    -0.305562481486E+02    0.27832E-03   -0.84173E-04 13904   0.329E-01    0.466E-02
DAV:   6    -0.305562436038E+02    0.45448E-05   -0.18172E-04 15152   0.155E-01    0.543E-02
DAV:   7    -0.305562292021E+02    0.14402E-04   -0.11609E-04 12560   0.154E-01    0.143E-02
DAV:   8    -0.305562276909E+02    0.15111E-05   -0.86776E-06 12272   0.334E-02    0.578E-03
DAV:   9    -0.305562273822E+02    0.30871E-06   -0.10470E-06 12928   0.876E-03    0.118E-03
DAV:  10    -0.305562273001E+02    0.82106E-07   -0.72439E-08 11104   0.266E-03    0.443E-04
DAV:  11    -0.305562272837E+02    0.16407E-07   -0.89664E-09  6416   0.127E-03    0.129E-04
DAV:  12    -0.305562272749E+02    0.87948E-08   -0.23652E-09  5792   0.519E-04
  13 F= -.30556227E+02 E0= -.30555561E+02  d E =-.176203E-02  mag=     0.0000
       N       E                     dE             d eps       ncg     rms          rms(c)
DAV:   1    -0.305554541841E+02    0.77310E-03   -0.95043E-01 12720   0.304E+01    0.203E+00
DAV:   2    -0.307081765289E+02   -0.15272E+00   -0.14067E+00 12960   0.114E+01    0.400E+00
DAV:   3    -0.305726688686E+02    0.13551E+00   -0.75429E-01 12656   0.927E+00    0.169E+00
DAV:   4    -0.305605909120E+02    0.12078E-01   -0.12591E-01 12400   0.512E+00    0.581E-01
DAV:   5    -0.305574570734E+02    0.31338E-02   -0.88525E-03 12416   0.111E+00    0.136E-01
DAV:   6    -0.305573499846E+02    0.10709E-03   -0.12080E-03 16048   0.341E-01    0.949E-02
DAV:   7    -0.305573176679E+02    0.32317E-04   -0.44273E-04 12576   0.311E-01    0.447E-02
DAV:   8    -0.305573079677E+02    0.97003E-05   -0.68350E-05 12352   0.106E-01    0.200E-02
DAV:   9    -0.305573075276E+02    0.44009E-06   -0.98088E-06 12928   0.292E-02    0.349E-03
DAV:  10    -0.305573076979E+02   -0.17034E-06   -0.74931E-07 12256   0.977E-03    0.152E-03
DAV:  11    -0.305573077626E+02   -0.64680E-07   -0.12637E-07 12688   0.412E-03    0.535E-04
DAV:  12    -0.305573077861E+02   -0.23530E-07   -0.17298E-08  6832   0.171E-03    0.928E-05
DAV:  13    -0.305573077877E+02   -0.15953E-08   -0.26716E-09  5968   0.430E-04
  14 F= -.30557308E+02 E0= -.30556597E+02  d E =-.108051E-02  mag=     0.0000
       N       E                     dE             d eps       ncg     rms          rms(c)
DAV:   1    -0.305573073543E+02    0.43184E-06   -0.54174E-04 12736   0.729E-01    0.490E-02
DAV:   2    -0.305573946133E+02   -0.87259E-04   -0.78758E-04 13008   0.274E-01    0.947E-02
DAV:   3    -0.305573160318E+02    0.78581E-04   -0.41331E-04 12800   0.220E-01    0.390E-02
DAV:   4    -0.305573096185E+02    0.64134E-05   -0.68860E-05 12480   0.118E-01    0.138E-02
DAV:   5    -0.305573080859E+02    0.15326E-05   -0.51664E-06 12960   0.276E-02    0.386E-03
DAV:   6    -0.305573088355E+02   -0.74961E-06   -0.49754E-06 13760   0.307E-02    0.116E-02
DAV:   7    -0.305573081132E+02    0.72227E-06   -0.34699E-06 12672   0.264E-02    0.702E-04
DAV:   8    -0.305573081480E+02   -0.34750E-07   -0.12659E-07 11328   0.250E-03    0.447E-04
DAV:   9    -0.305573081627E+02   -0.14663E-07   -0.45948E-09  5776   0.795E-04    0.139E-04
DAV:  10    -0.305573081719E+02   -0.92041E-08   -0.14350E-09  5632   0.333E-04
  15 F= -.30557308E+02 E0= -.30556597E+02  d E =-.108090E-02  mag=    -0.0000
       N       E                     dE             d eps       ncg     rms          rms(c)
DAV:   1    -0.305576636569E+02   -0.35549E-03   -0.34783E-01 12976   0.184E+01    0.129E+00
DAV:   2    -0.306166799992E+02   -0.59016E-01   -0.50823E-01 12736   0.689E+00    0.235E+00
DAV:   3    -0.305600099222E+02    0.56670E-01   -0.23658E-01 12608   0.509E+00    0.662E-01
DAV:   4    -0.305586043071E+02    0.14056E-02   -0.23763E-02 13184   0.217E+00    0.347E-01
DAV:   5    -0.305576325258E+02    0.97178E-03   -0.29843E-03 13184   0.724E-01    0.972E-02
DAV:   6    -0.305579840844E+02   -0.35156E-03   -0.27756E-03 13520   0.750E-01    0.277E-01
DAV:   7    -0.305575519237E+02    0.43216E-03   -0.20339E-03 12768   0.657E-01    0.251E-02
DAV:   8    -0.305575471953E+02    0.47284E-05   -0.75132E-05 12560   0.578E-02    0.107E-02
DAV:   9    -0.305575464554E+02    0.73993E-06   -0.46043E-06 15312   0.224E-02    0.353E-03
DAV:  10    -0.305575461766E+02    0.27879E-06   -0.50252E-07 12416   0.813E-03    0.114E-03
DAV:  11    -0.305575461031E+02    0.73520E-07   -0.54355E-08 11200   0.297E-03    0.331E-04
DAV:  12    -0.305575460653E+02    0.37749E-07   -0.59314E-09  6480   0.897E-04    0.118E-04
DAV:  13    -0.305575460608E+02    0.45620E-08   -0.11735E-09  5824   0.368E-04
  16 F= -.30557546E+02 E0= -.30556827E+02  d E =-.237889E-03  mag=    -0.0000
       N       E                     dE             d eps       ncg     rms          rms(c)
DAV:   1    -0.305575774270E+02   -0.31362E-04   -0.18432E-02 12976   0.423E+00    0.296E-01
DAV:   2    -0.305607347108E+02   -0.31573E-02   -0.27656E-02 12736   0.158E+00    0.556E-01
DAV:   3    -0.305577490386E+02    0.29857E-02   -0.13451E-02 12624   0.118E+00    0.183E-01
DAV:   4    -0.305576193631E+02    0.12968E-03   -0.16106E-03 12832   0.577E-01    0.769E-02
DAV:   5    -0.305575723903E+02    0.46973E-04   -0.14563E-04 12848   0.152E-01    0.217E-02
DAV:   6    -0.305575868324E+02   -0.14442E-04   -0.11521E-04 13536   0.149E-01    0.566E-02
DAV:   7    -0.305575691814E+02    0.17651E-04   -0.86014E-05 12768   0.134E-01    0.591E-03
DAV:   8    -0.305575692471E+02   -0.65655E-07   -0.32774E-06 12336   0.123E-02    0.227E-03
DAV:   9    -0.305575693044E+02   -0.57307E-07   -0.21045E-07 15248   0.458E-03    0.762E-04
DAV:  10    -0.305575693666E+02   -0.62282E-07   -0.22045E-08  8000   0.181E-03    0.239E-04
DAV:  11    -0.305575693822E+02   -0.15518E-07   -0.37094E-09  5760   0.780E-04    0.892E-05
DAV:  12    -0.305575693876E+02   -0.54242E-08   -0.69976E-10  5696   0.312E-04
  17 F= -.30557569E+02 E0= -.30556851E+02  d E =-.261216E-03  mag=    -0.0000
       N       E                     dE             d eps       ncg     rms          rms(c)
DAV:   1    -0.305575513151E+02    0.18067E-04   -0.40956E-02 13008   0.624E+00    0.431E-01
DAV:   2    -0.305654249245E+02   -0.78736E-02   -0.67241E-02 13168   0.251E+00    0.931E-01
DAV:   3    -0.305587224657E+02    0.67025E-02   -0.42806E-02 12992   0.248E+00    0.442E-01
DAV:   4    -0.305576951239E+02    0.10273E-02   -0.68528E-03 12384   0.123E+00    0.954E-02
DAV:   5    -0.305576306529E+02    0.64471E-04   -0.43176E-04 13184   0.220E-01    0.489E-02
DAV:   6    -0.305576797071E+02   -0.49054E-04   -0.49945E-04 13312   0.309E-01    0.108E-01
DAV:   7    -0.305576139355E+02    0.65772E-04   -0.29388E-04 12976   0.240E-01    0.632E-03
DAV:   8    -0.305576140668E+02   -0.13125E-06   -0.10629E-05 12160   0.240E-02    0.327E-03
DAV:   9    -0.305576141881E+02   -0.12129E-06   -0.39093E-07 14896   0.637E-03    0.167E-03
DAV:  10    -0.305576142763E+02   -0.88276E-07   -0.63650E-08 11152   0.236E-03    0.423E-04
DAV:  11    -0.305576142967E+02   -0.20344E-07   -0.49043E-09  6496   0.897E-04    0.133E-04
DAV:  12    -0.305576143033E+02   -0.65847E-08   -0.14110E-09  5888   0.393E-04
  18 F= -.30557614E+02 E0= -.30556891E+02  d E =-.449157E-04  mag=    -0.0000
       N       E                     dE             d eps       ncg     rms          rms(c)
DAV:   1    -0.305576141731E+02    0.12355E-06   -0.25034E-04 13008   0.488E-01    0.338E-02
DAV:   2    -0.305576636753E+02   -0.49502E-04   -0.40989E-04 13136   0.197E-01    0.726E-02
DAV:   3    -0.305576214919E+02    0.42183E-04   -0.25427E-04 13008   0.192E-01    0.336E-02
DAV:   4    -0.305576154642E+02    0.60278E-05   -0.40385E-05 12480   0.898E-02    0.743E-03
DAV:   5    -0.305576149517E+02    0.51251E-06   -0.24688E-06 12448   0.163E-02    0.333E-03
DAV:   6    -0.305576152047E+02   -0.25305E-06   -0.27451E-06 13472   0.228E-02    0.849E-03
DAV:   7    -0.305576147571E+02    0.44757E-06   -0.18330E-06 12928   0.190E-02    0.486E-04
DAV:   8    -0.305576147339E+02    0.23203E-07   -0.65205E-08 10096   0.185E-03    0.280E-04
DAV:   9    -0.305576147228E+02    0.11121E-07   -0.21228E-09  5584   0.548E-04    0.116E-04
DAV:  10    -0.305576147156E+02    0.71941E-08   -0.69425E-10  5552   0.251E-04
  19 F= -.30557615E+02 E0= -.30556892E+02  d E =-.453280E-04  mag=    -0.0000
       N       E                     dE             d eps       ncg     rms          rms(c)
DAV:   1    -0.305576673122E+02   -0.52589E-04   -0.89163E-03 12880   0.309E+00    0.217E-01
DAV:   2    -0.305595220937E+02   -0.18548E-02   -0.15532E-02 12944   0.119E+00    0.438E-01
DAV:   3    -0.305577806408E+02    0.17415E-02   -0.87041E-03 12800   0.102E+00    0.173E-01
DAV:   4    -0.305576471144E+02    0.13353E-03   -0.12596E-03 12368   0.498E-01    0.450E-02
DAV:   5    -0.305576346996E+02    0.12415E-04   -0.60712E-05 12480   0.762E-02    0.229E-02
DAV:   6    -0.305576413476E+02   -0.66479E-05   -0.72200E-05 13376   0.119E-01    0.455E-02
DAV:   7    -0.305576292301E+02    0.12118E-04   -0.53066E-05 12816   0.103E-01    0.385E-03
DAV:   8    -0.305576289675E+02    0.26260E-06   -0.21566E-06 12288   0.108E-02    0.148E-03
DAV:   9    -0.305576288792E+02    0.88285E-07   -0.99496E-08 11936   0.284E-03    0.574E-04
DAV:  10    -0.305576288430E+02    0.36156E-07   -0.11133E-08  6800   0.106E-03    0.173E-04
DAV:  11    -0.305576288338E+02    0.92368E-08   -0.30588E-09  5760   0.629E-04
  20 F= -.30557629E+02 E0= -.30556905E+02  d E =-.141182E-04  mag=    -0.0000
       N       E                     dE             d eps       ncg     rms          rms(c)
DAV:   1    -0.305576289612E+02   -0.11815E-06   -0.20735E-05 12880   0.149E-01    0.105E-02
DAV:   2    -0.305576336499E+02   -0.46888E-05   -0.36252E-05 12928   0.572E-02    0.212E-02
DAV:   3    -0.305576293923E+02    0.42576E-05   -0.20475E-05 12832   0.492E-02    0.847E-03
DAV:   4    -0.305576290541E+02    0.33823E-06   -0.29862E-06 12320   0.243E-02    0.216E-03
DAV:   5    -0.305576289961E+02    0.58029E-07   -0.14376E-07 12272   0.367E-03    0.110E-03
DAV:   6    -0.305576289825E+02    0.13539E-07   -0.16644E-07 10944   0.572E-03    0.219E-03
DAV:   7    -0.305576289326E+02    0.49971E-07   -0.12193E-07  8608   0.500E-03    0.185E-04
DAV:   8    -0.305576289245E+02    0.81109E-08   -0.49999E-09  5504   0.549E-04
  21 F= -.30557629E+02 E0= -.30556905E+02  d E =-.142088E-04  mag=     0.0000
