       N       E                     dE             d eps       ncg     rms          rms(c)
DAV:   1    -0.179840325166E+02   -0.17984E+02   -0.69550E-01  3520   0.107E+01    0.174E-01
DAV:   2    -0.179844251278E+02   -0.39261E-03   -0.14096E-02  4464   0.138E+00    0.387E-01
DAV:   3    -0.179836458749E+02    0.77925E-03   -0.92638E-03  4464   0.109E+00    0.788E-02
DAV:   4    -0.179835443995E+02    0.10148E-03   -0.25008E-04  4408   0.186E-01    0.204E-02
DAV:   5    -0.179835548928E+02   -0.10493E-04   -0.14232E-05  3928   0.371E-02    0.474E-03
DAV:   6    -0.179835576978E+02   -0.28050E-05   -0.23373E-06  4256   0.166E-02    0.229E-03
DAV:   7    -0.179835579580E+02   -0.26014E-06   -0.24980E-07  4160   0.456E-03    0.619E-04
DAV:   8    -0.179835577306E+02    0.22733E-06   -0.38218E-08  3960   0.192E-03    0.182E-04
DAV:   9    -0.179835577947E+02   -0.64102E-07   -0.27410E-09  1952   0.518E-04    0.324E-05
DAV:  10    -0.179835577702E+02    0.24520E-07   -0.42761E-10  1840   0.197E-04    0.179E-05
DAV:  11    -0.179835577804E+02   -0.10155E-07   -0.11623E-10  1812   0.119E-04    0.656E-06
DAV:  12    -0.179835577821E+02   -0.17640E-08   -0.30171E-11  1792   0.598E-05
   1 F= -.17983558E+02 E0= -.17983558E+02  d E =0.000000E+00  mag=     0.0000
