       N       E                     dE             d eps       ncg     rms          rms(c)
DAV:   1     0.126513558182E+03    0.12651E+03   -0.13571E+04  4216   0.113E+03
DAV:   2    -0.147410201166E+02   -0.14125E+03   -0.13656E+03  3600   0.301E+02
DAV:   3    -0.191955300329E+02   -0.44545E+01   -0.43644E+01  4424   0.583E+01
DAV:   4    -0.192799333357E+02   -0.84403E-01   -0.84239E-01  4208   0.789E+00
DAV:   5    -0.192824098562E+02   -0.24765E-02   -0.24764E-02  4364   0.145E+00    0.265E+01
DAV:   6    -0.499291654776E+02   -0.30647E+02   -0.41874E+02  4520   0.232E+02    0.373E+01
DAV:   7    -0.196330820103E+02    0.30296E+02   -0.80987E+01  4704   0.102E+02    0.170E+01
DAV:   8    -0.153284433003E+02    0.43046E+01   -0.15179E+01  4784   0.611E+01    0.323E+00
DAV:   9    -0.154798044385E+02   -0.15136E+00   -0.22001E+00  5284   0.114E+01    0.443E+00
DAV:  10    -0.154446340770E+02    0.35170E-01   -0.16856E+00  4320   0.135E+01    0.228E+00
DAV:  11    -0.154267986017E+02    0.17835E-01   -0.59483E-02  4496   0.215E+00    0.136E+00
DAV:  12    -0.154133755229E+02    0.13423E-01   -0.33307E-02  5112   0.186E+00    0.594E-01
DAV:  13    -0.154110425289E+02    0.23330E-02   -0.20859E-02  4592   0.152E+00    0.109E-01
DAV:  14    -0.154111236245E+02   -0.81096E-04   -0.41546E-04  4056   0.156E-01    0.116E-01
DAV:  15    -0.154110189931E+02    0.10463E-03   -0.82574E-04  4168   0.309E-01    0.285E-02
DAV:  16    -0.154110308146E+02   -0.11821E-04   -0.36422E-05  5308   0.497E-02    0.379E-02
DAV:  17    -0.154110177197E+02    0.13095E-04   -0.10363E-04  4564   0.978E-02    0.886E-03
DAV:  18    -0.154110176207E+02    0.98995E-07   -0.19410E-06  4120   0.127E-02    0.536E-03
DAV:  19    -0.154110174479E+02    0.17281E-06   -0.13838E-06  4676   0.102E-02    0.121E-03
DAV:  20    -0.154110174526E+02   -0.47457E-08   -0.12323E-07  4640   0.257E-03    0.124E-03
DAV:  21    -0.154110174247E+02    0.27892E-07   -0.18770E-08  2372   0.136E-03    0.622E-04
DAV:  22    -0.154110174109E+02    0.13791E-07   -0.11331E-08  2084   0.871E-04    0.243E-04
DAV:  23    -0.154110174091E+02    0.18572E-08   -0.30781E-09  2004   0.371E-04
   1 F= -.15411017E+02 E0= -.15411258E+02  d E =-.154110E+02  mag=    -0.0000
       N       E                     dE             d eps       ncg     rms          rms(c)
DAV:   1    -0.136097057452E+03   -0.12069E+03   -0.23597E+03  3704   0.755E+02    0.743E+01
DAV:   2    -0.264952482239E+02    0.10960E+03   -0.45363E+02  4032   0.193E+02    0.199E+01
DAV:   3    -0.372568510341E+02   -0.10762E+02   -0.28394E+02  4184   0.127E+02    0.324E+01
DAV:   4    -0.177099524722E+02    0.19547E+02   -0.54095E+01  4740   0.800E+01    0.443E+00
DAV:   5    -0.171677663717E+02    0.54219E+00   -0.20392E+00  4280   0.132E+01    0.624E+00
DAV:   6    -0.177157397044E+02   -0.54797E+00   -0.12761E+01  4800   0.247E+01    0.149E+01
DAV:   7    -0.165300090163E+02    0.11857E+01   -0.68767E+00  4224   0.168E+01    0.122E+00
DAV:   8    -0.165563017290E+02   -0.26293E-01   -0.99339E-02  4024   0.248E+00    0.207E+00
DAV:   9    -0.165279201201E+02    0.28382E-01   -0.12548E-01  4032   0.325E+00    0.327E-01
DAV:  10    -0.165271597261E+02    0.76039E-03   -0.66679E-03  4360   0.531E-01    0.106E-01
DAV:  11    -0.165271103563E+02    0.49370E-04   -0.12031E-03  4016   0.312E-01    0.568E-02
DAV:  12    -0.165270564981E+02    0.53858E-04   -0.34331E-04  3960   0.130E-01    0.211E-02
DAV:  13    -0.165270545080E+02    0.19900E-05   -0.18780E-05  4304   0.354E-02    0.360E-03
DAV:  14    -0.165270544906E+02    0.17431E-07   -0.17071E-06  4548   0.100E-02    0.230E-03
DAV:  15    -0.165270544566E+02    0.34001E-07   -0.34483E-07  4260   0.438E-03    0.957E-04
DAV:  16    -0.165270544579E+02   -0.12656E-08   -0.17788E-08  2660   0.942E-04
   2 F= -.16527054E+02 E0= -.16526918E+02  d E =-.111604E+01  mag=     0.0000
       N       E                     dE             d eps       ncg     rms          rms(c)
DAV:   1    -0.857590451468E+02   -0.69232E+02   -0.69881E+02  4496   0.275E+02    0.820E+01
DAV:   2    -0.206229599999E+03   -0.12047E+03   -0.25214E+03  5752   0.390E+02    0.903E+01
DAV:   3    -0.413573991407E+02    0.16487E+03   -0.91043E+02  4288   0.192E+02    0.270E+01
DAV:   4    -0.304632281160E+02    0.10894E+02   -0.50957E+01  4284   0.551E+01    0.195E+01
DAV:   5    -0.190120517689E+02    0.11451E+02   -0.25265E+01  4644   0.587E+01    0.722E+00
DAV:   6    -0.219315541744E+02   -0.29195E+01   -0.55002E+01  5376   0.543E+01    0.273E+01
DAV:   7    -0.176251623812E+02    0.43064E+01   -0.27240E+01  4612   0.333E+01    0.143E+00
DAV:   8    -0.178034584704E+02   -0.17830E+00   -0.13896E+00  5108   0.907E+00    0.430E+00
DAV:   9    -0.177771977201E+02    0.26261E-01   -0.56367E-02  4260   0.228E+00    0.382E+00
DAV:  10    -0.176223990950E+02    0.15480E+00   -0.60018E-01  4372   0.841E+00    0.540E-01
DAV:  11    -0.176268561331E+02   -0.44570E-02   -0.35701E-02  4516   0.174E+00    0.812E-01
DAV:  12    -0.176259778364E+02    0.87830E-03   -0.38729E-03  4068   0.564E-01    0.958E-01
DAV:  13    -0.176181386741E+02    0.78392E-02   -0.10798E-02  5020   0.913E-01    0.468E-01
DAV:  14    -0.176163890342E+02    0.17496E-02   -0.24599E-03  5420   0.382E-01    0.250E-01
DAV:  15    -0.176154725971E+02    0.91644E-03   -0.30542E-03  5116   0.390E-01    0.352E-02
DAV:  16    -0.176154734359E+02   -0.83887E-06   -0.16873E-04  4232   0.112E-01    0.301E-02
DAV:  17    -0.176154660530E+02    0.73830E-05   -0.20207E-05  4768   0.305E-02    0.984E-03
DAV:  18    -0.176154674194E+02   -0.13664E-05   -0.28095E-05  5344   0.423E-02    0.182E-02
DAV:  19    -0.176154659047E+02    0.15147E-05   -0.34437E-06  4120   0.200E-02    0.100E-02
DAV:  20    -0.176154653444E+02    0.56023E-06   -0.29685E-06  4556   0.161E-02    0.185E-03
DAV:  21    -0.176154653571E+02   -0.12709E-07   -0.26876E-07  5232   0.345E-03    0.539E-04
DAV:  22    -0.176154653659E+02   -0.87834E-08   -0.17797E-08  3152   0.110E-03
   3 F= -.17615465E+02 E0= -.17615426E+02  d E =-.220445E+01  mag=     0.0000
       N       E                     dE             d eps       ncg     rms          rms(c)
DAV:   1    -0.176263461875E+02   -0.10881E-01   -0.94938E-02  3952   0.390E+00    0.125E+00
DAV:   2    -0.177312780671E+02   -0.10493E+00   -0.97717E-01  4276   0.986E+00    0.359E+00
DAV:   3    -0.176155944496E+02    0.11568E+00   -0.51718E-01  4328   0.781E+00    0.120E-01
DAV:   4    -0.176158230190E+02   -0.22857E-03   -0.50003E-03  3824   0.395E-01    0.127E-01
DAV:   5    -0.176157079574E+02    0.11506E-03   -0.40557E-04  4476   0.197E-01    0.120E-02
DAV:   6    -0.176157060432E+02    0.19142E-05   -0.86326E-06  3964   0.211E-02    0.464E-03
DAV:   7    -0.176157055862E+02    0.45700E-06   -0.15704E-06  4128   0.108E-02    0.788E-04
DAV:   8    -0.176157055181E+02    0.68169E-07   -0.21654E-07  4112   0.349E-03    0.863E-04
DAV:   9    -0.176157054681E+02    0.49972E-07   -0.22307E-08  2668   0.140E-03    0.111E-04
DAV:  10    -0.176157054673E+02    0.83537E-09   -0.25790E-09  1908   0.381E-04
   4 F= -.17615705E+02 E0= -.17615646E+02  d E =-.220469E+01  mag=     0.0000
       N       E                     dE             d eps       ncg     rms          rms(c)
DAV:   1    -0.187510570778E+02   -0.11354E+01   -0.16687E+01  3960   0.372E+01    0.127E+01
DAV:   2    -0.248068593769E+02   -0.60558E+01   -0.84375E+01  4200   0.878E+01    0.196E+01
DAV:   3    -0.180840028558E+02    0.67229E+01   -0.15161E+01  4528   0.636E+01    0.492E+00
DAV:   4    -0.180727540381E+02    0.11249E-01   -0.57840E+00  5272   0.229E+01    0.575E+00
DAV:   5    -0.178375119797E+02    0.23524E+00   -0.21430E+00  4264   0.147E+01    0.139E+00
DAV:   6    -0.178196819199E+02    0.17830E-01   -0.58315E-02  4388   0.223E+00    0.554E-01
DAV:   7    -0.178182883153E+02    0.13936E-02   -0.31461E-03  4596   0.492E-01    0.364E-01
DAV:   8    -0.178170482331E+02    0.12401E-02   -0.53135E-03  4316   0.759E-01    0.245E-02
DAV:   9    -0.178170635342E+02   -0.15301E-04   -0.16249E-04  3984   0.959E-02    0.187E-02
DAV:  10    -0.178170602107E+02    0.33236E-05   -0.17822E-05  4704   0.399E-02    0.210E-03
DAV:  11    -0.178170601920E+02    0.18685E-07   -0.15271E-06  5260   0.792E-03    0.439E-03
DAV:  12    -0.178170600880E+02    0.10401E-06   -0.62881E-07  4488   0.788E-03    0.912E-04
DAV:  13    -0.178170600862E+02    0.17967E-08   -0.36835E-08  2992   0.157E-03
   5 F= -.17817060E+02 E0= -.17816974E+02  d E =-.201355E+00  mag=     0.0000
       N       E                     dE             d eps       ncg     rms          rms(c)
DAV:   1    -0.183281809082E+02   -0.51112E+00   -0.89180E+00  3992   0.288E+01    0.728E+00
DAV:   2    -0.198977137701E+02   -0.15695E+01   -0.21302E+01  4168   0.486E+01    0.120E+01
DAV:   3    -0.179002884937E+02    0.19974E+01   -0.64328E+00  4304   0.386E+01    0.148E+00
DAV:   4    -0.179106100728E+02   -0.10322E-01   -0.61257E-01  5296   0.676E+00    0.203E+00
DAV:   5    -0.178780674363E+02    0.32543E-01   -0.27444E-01  4388   0.562E+00    0.406E-01
DAV:   6    -0.178764257586E+02    0.16417E-02   -0.93892E-03  4704   0.956E-01    0.108E-01
DAV:   7    -0.178763517370E+02    0.74022E-04   -0.11630E-03  4888   0.348E-01    0.425E-02
DAV:   8    -0.178763455912E+02    0.61458E-05   -0.61821E-05  4368   0.816E-02    0.131E-02
DAV:   9    -0.178763445165E+02    0.10748E-05   -0.74015E-06  4172   0.263E-02    0.254E-03
DAV:  10    -0.178763442973E+02    0.21919E-06   -0.45689E-07  5352   0.750E-03    0.914E-04
DAV:  11    -0.178763442831E+02    0.14195E-07   -0.86784E-08  4148   0.278E-03    0.273E-04
DAV:  12    -0.178763442744E+02    0.86375E-08   -0.87899E-09  2020   0.927E-04
   6 F= -.17876344E+02 E0= -.17876434E+02  d E =-.260639E+00  mag=    -0.0000
       N       E                     dE             d eps       ncg     rms          rms(c)
DAV:   1    -0.178912419868E+02   -0.14898E-01   -0.28434E-01  4008   0.535E+00    0.119E+00
DAV:   2    -0.179349158565E+02   -0.43674E-01   -0.56634E-01  4352   0.812E+00    0.246E+00
DAV:   3    -0.178780374565E+02    0.56878E-01   -0.33304E-01  4320   0.648E+00    0.336E-01
DAV:   4    -0.178765441875E+02    0.14933E-02   -0.62358E-03  3920   0.592E-01    0.108E-01
DAV:   5    -0.178764635742E+02    0.80613E-04   -0.52009E-04  4720   0.235E-01    0.190E-02
DAV:   6    -0.178764608428E+02    0.27314E-05   -0.23329E-05  4872   0.429E-02    0.499E-03
DAV:   7    -0.178764608258E+02    0.17019E-07   -0.11369E-06  4088   0.118E-02    0.102E-03
DAV:   8    -0.178764607532E+02    0.72593E-07   -0.50871E-08  4016   0.200E-03    0.259E-04
DAV:   9    -0.178764607317E+02    0.21488E-07   -0.67832E-09  2152   0.937E-04    0.967E-05
DAV:  10    -0.178764607284E+02    0.33383E-08   -0.12513E-09  1944   0.388E-04
   7 F= -.17876461E+02 E0= -.17876464E+02  d E =-.260755E+00  mag=     0.0000
       N       E                     dE             d eps       ncg     rms          rms(c)
DAV:   1    -0.178787646318E+02   -0.23039E-02   -0.36555E-02  4008   0.194E+00    0.413E-01
DAV:   2    -0.178834468876E+02   -0.46823E-02   -0.65826E-02  4364   0.287E+00    0.829E-01
DAV:   3    -0.178770868005E+02    0.63601E-02   -0.39107E-02  4328   0.218E+00    0.122E-01
DAV:   4    -0.178768865715E+02    0.20023E-03   -0.79155E-04  3956   0.229E-01    0.282E-02
DAV:   5    -0.178768826785E+02    0.38930E-05   -0.48593E-05  4456   0.716E-02    0.587E-03
DAV:   6    -0.178768824223E+02    0.25621E-06   -0.17496E-06  4800   0.133E-02    0.188E-03
DAV:   7    -0.178768824517E+02   -0.29422E-07   -0.10794E-07  4056   0.254E-03    0.352E-04
DAV:   8    -0.178768824661E+02   -0.14411E-07   -0.61953E-09  2128   0.823E-04    0.124E-04
DAV:   9    -0.178768824727E+02   -0.65197E-08   -0.12682E-09  1896   0.326E-04
   8 F= -.17876882E+02 E0= -.17876950E+02  d E =-.261177E+00  mag=     0.0000
       N       E                     dE             d eps       ncg     rms          rms(c)
DAV:   1    -0.183081999933E+02   -0.43132E+00   -0.44168E+00  4000   0.275E+01    0.665E+00
DAV:   2    -0.207562523013E+02   -0.24481E+01   -0.27330E+01  4416   0.543E+01    0.212E+01
DAV:   3    -0.179513376398E+02    0.28049E+01   -0.23134E+01  4456   0.380E+01    0.246E+00
DAV:   4    -0.179200659613E+02    0.31272E-01   -0.22843E-01  3904   0.404E+00    0.142E+00
DAV:   5    -0.178993224016E+02    0.20744E-01   -0.71848E-02  5208   0.230E+00    0.247E-01
DAV:   6    -0.178987121003E+02    0.61030E-03   -0.50896E-03  5048   0.551E-01    0.408E-02
DAV:   7    -0.178987096753E+02    0.24250E-05   -0.17392E-04  4256   0.107E-01    0.173E-02
DAV:   8    -0.178987083707E+02    0.13045E-05   -0.97530E-06  4000   0.291E-02    0.488E-03
DAV:   9    -0.178987081750E+02    0.19576E-06   -0.12317E-06  4464   0.121E-02    0.867E-04
DAV:  10    -0.178987081890E+02   -0.14056E-07   -0.58902E-08  4324   0.230E-03    0.260E-04
DAV:  11    -0.178987081987E+02   -0.96852E-08   -0.29879E-09  2088   0.431E-04
   9 F= -.17898708E+02 E0= -.17898575E+02  d E =-.218257E-01  mag=     0.0000
       N       E                     dE             d eps       ncg     rms          rms(c)
DAV:   1    -0.179037910145E+02   -0.50828E-02   -0.45770E-02  4088   0.278E+00    0.807E-01
DAV:   2    -0.179414308245E+02   -0.37640E-01   -0.38574E-01  4384   0.675E+00    0.217E+00
DAV:   3    -0.178989296304E+02    0.42501E-01   -0.23277E-01  4320   0.512E+00    0.896E-02
DAV:   4    -0.178989190666E+02    0.10564E-04   -0.18151E-03  3824   0.258E-01    0.668E-02
DAV:   5    -0.178988884882E+02    0.30578E-04   -0.12609E-04  4424   0.124E-01    0.664E-03
DAV:   6    -0.178988882535E+02    0.23470E-06   -0.29376E-06  3928   0.119E-02    0.293E-03
DAV:   7    -0.178988883113E+02   -0.57789E-07   -0.31746E-07  4240   0.502E-03    0.427E-04
DAV:   8    -0.178988883417E+02   -0.30418E-07   -0.38365E-08  4024   0.157E-03    0.338E-04
DAV:   9    -0.178988883601E+02   -0.18337E-07   -0.23070E-09  2048   0.463E-04    0.917E-05
DAV:  10    -0.178988883670E+02   -0.68990E-08   -0.57649E-10  1880   0.181E-04
  10 F= -.17898888E+02 E0= -.17898718E+02  d E =-.220059E-01  mag=     0.0000
       N       E                     dE             d eps       ncg     rms          rms(c)
DAV:   1    -0.180172905543E+02   -0.11840E+00   -0.12419E+00  4072   0.143E+01    0.392E+00
DAV:   2    -0.186442359083E+02   -0.62695E+00   -0.79197E+00  4160   0.310E+01    0.773E+00
DAV:   3    -0.179002759329E+02    0.74396E+00   -0.27819E+00  4248   0.233E+01    0.462E-01
DAV:   4    -0.179060579867E+02   -0.57821E-02   -0.12846E-01  4768   0.274E+00    0.853E-01
DAV:   5    -0.179001882340E+02    0.58698E-02   -0.34888E-02  4120   0.207E+00    0.416E-02
DAV:   6    -0.179002067690E+02   -0.18535E-04   -0.62280E-04  3968   0.195E-01    0.196E-02
DAV:   7    -0.179002076328E+02   -0.86374E-06   -0.81718E-05  4696   0.661E-02    0.197E-02
DAV:   8    -0.179002025344E+02    0.50984E-05   -0.22376E-05  4592   0.455E-02    0.216E-03
DAV:   9    -0.179002023387E+02    0.19568E-06   -0.70139E-07  4608   0.743E-03    0.209E-03
DAV:  10    -0.179002022312E+02    0.10753E-06   -0.27421E-07  5400   0.485E-03    0.283E-04
DAV:  11    -0.179002022301E+02    0.10768E-08   -0.10267E-08  2088   0.829E-04
  11 F= -.17900202E+02 E0= -.17900148E+02  d E =-.131386E-02  mag=    -0.0000
       N       E                     dE             d eps       ncg     rms          rms(c)
DAV:   1    -0.179138779114E+02   -0.13676E-01   -0.14134E-01  4068   0.483E+00    0.131E+00
DAV:   2    -0.180000928569E+02   -0.86215E-01   -0.90947E-01  4308   0.106E+01    0.334E+00
DAV:   3    -0.179009230479E+02    0.99170E-01   -0.55577E-01  4240   0.786E+00    0.194E-01
DAV:   4    -0.179007650073E+02    0.15804E-03   -0.47511E-03  3800   0.439E-01    0.118E-01
DAV:   5    -0.179006592848E+02    0.10572E-03   -0.37730E-04  4664   0.220E-01    0.157E-02
DAV:   6    -0.179006551195E+02    0.41653E-05   -0.12849E-05  3848   0.297E-02    0.631E-03
DAV:   7    -0.179006548359E+02    0.28358E-06   -0.12044E-06  4664   0.772E-03    0.118E-03
DAV:   8    -0.179006548977E+02   -0.61833E-07   -0.14042E-07  4168   0.356E-03    0.518E-04
DAV:   9    -0.179006549104E+02   -0.12697E-07   -0.80226E-09  2148   0.998E-04    0.151E-04
DAV:  10    -0.179006549235E+02   -0.13076E-07   -0.20225E-09  1888   0.364E-04    0.189E-05
DAV:  11    -0.179006549227E+02    0.78717E-09   -0.25532E-10  1824   0.166E-04
  12 F= -.17900655E+02 E0= -.17900544E+02  d E =-.176656E-02  mag=    -0.0000
       N       E                     dE             d eps       ncg     rms          rms(c)
DAV:   1    -0.179024929584E+02   -0.18380E-02   -0.24315E-02  4128   0.176E+00    0.450E-01
DAV:   2    -0.179119340232E+02   -0.94411E-02   -0.10571E-01  4376   0.355E+00    0.110E+00
DAV:   3    -0.179007956894E+02    0.11138E-01   -0.63507E-02  4368   0.273E+00    0.851E-02
DAV:   4    -0.179007186290E+02    0.77060E-04   -0.62349E-04  3792   0.170E-01    0.362E-02
DAV:   5    -0.179007098727E+02    0.87563E-05   -0.50334E-05  4388   0.772E-02    0.574E-03
DAV:   6    -0.179007096319E+02    0.24076E-06   -0.14449E-06  4564   0.104E-02    0.185E-03
DAV:   7    -0.179007096540E+02   -0.22055E-07   -0.97782E-08  4492   0.283E-03    0.340E-04
DAV:   8    -0.179007096757E+02   -0.21669E-07   -0.63899E-09  2188   0.997E-04    0.632E-05
DAV:   9    -0.179007096802E+02   -0.45602E-08   -0.70584E-10  1856   0.228E-04
  13 F= -.17900710E+02 E0= -.17900647E+02  d E =-.547575E-04  mag=    -0.0000
       N       E                     dE             d eps       ncg     rms          rms(c)
DAV:   1    -0.179008049083E+02   -0.95233E-04   -0.12636E-03  4120   0.401E-01    0.995E-02
DAV:   2    -0.179012637415E+02   -0.45883E-03   -0.50874E-03  4328   0.781E-01    0.245E-01
DAV:   3    -0.179007211841E+02    0.54256E-03   -0.30321E-03  4344   0.604E-01    0.220E-02
DAV:   4    -0.179007151615E+02    0.60226E-05   -0.32349E-05  3776   0.407E-02    0.636E-03
DAV:   5    -0.179007149301E+02    0.23141E-06   -0.17205E-06  4768   0.125E-02    0.129E-03
DAV:   6    -0.179007149108E+02    0.19311E-07   -0.48522E-08  3996   0.229E-03    0.669E-04
DAV:   7    -0.179007149031E+02    0.77002E-08   -0.15025E-08  2064   0.120E-03
  14 F= -.17900715E+02 E0= -.17900641E+02  d E =-.599804E-04  mag=    -0.0000
