 running on   24 total cores
 distrk:  each k-point on   24 cores,    1 groups
 distr:  one band on    6 cores,    4 groups
 using from now: INCAR     
 vasp.5.4.4.18Apr17-6-g9f103f2a35 (build Jan 03 2018 06:08:52) complex          
  
 POSCAR found :  2 types and       4 ions
 scaLAPACK will be used
 WARNING: for PREC=h ENMAX is automatically increase by 25 %
        this was not the case for versions prior to vasp.4.4
 WARNING: for PREC=h ENMAX is automatically increase by 25 %
        this was not the case for versions prior to vasp.4.4
 LDA part: xc-table for Pade appr. of Perdew
 POSCAR, INCAR and KPOINTS ok, starting setup
 FFT: planning ...
 WAVECAR not read
 entering main loop
       N       E                     dE             d eps       ncg     rms          rms(c)
DAV:   1     0.131415489857E+03    0.13142E+03   -0.13583E+04  5768   0.113E+03
DAV:   2    -0.141074611150E+02   -0.14552E+03   -0.14076E+03  4972   0.305E+02
DAV:   3    -0.184154960881E+02   -0.43080E+01   -0.42322E+01  5932   0.580E+01
DAV:   4    -0.184902504267E+02   -0.74754E-01   -0.74698E-01  5432   0.763E+00
DAV:   5    -0.184925064219E+02   -0.22560E-02   -0.22559E-02  5768   0.140E+00    0.219E+01
DAV:   6    -0.341440562249E+02   -0.15652E+02   -0.23699E+02  5428   0.186E+02    0.300E+01
DAV:   7    -0.173124905480E+02    0.16832E+02   -0.35643E+01  6060   0.980E+01    0.101E+01
DAV:   8    -0.160919818529E+02    0.12205E+01   -0.74448E+00  6528   0.395E+01    0.217E+00
DAV:   9    -0.161291907229E+02   -0.37209E-01   -0.10127E+00  6000   0.129E+01    0.246E+00
DAV:  10    -0.160741027042E+02    0.55088E-01   -0.13897E-01  6016   0.496E+00    0.804E-01
DAV:  11    -0.160696149678E+02    0.44877E-02   -0.80523E-02  7216   0.323E+00    0.479E-01
DAV:  12    -0.160680041864E+02    0.16108E-02   -0.59626E-03  6936   0.789E-01    0.231E-01
DAV:  13    -0.160675266503E+02    0.47754E-03   -0.14136E-03  7196   0.405E-01    0.712E-02
DAV:  14    -0.160674940961E+02    0.32554E-04   -0.12820E-04  7240   0.112E-01    0.271E-02
DAV:  15    -0.160674865457E+02    0.75504E-05   -0.28677E-05  6588   0.640E-02    0.397E-03
DAV:  16    -0.160674863929E+02    0.15277E-06   -0.27539E-06  7372   0.154E-02    0.312E-03
DAV:  17    -0.160674862316E+02    0.16129E-06   -0.97365E-08  5704   0.311E-03    0.200E-03
DAV:  18    -0.160674861497E+02    0.81888E-07   -0.72761E-08  4444   0.295E-03    0.779E-04
DAV:  19    -0.160674861235E+02    0.26211E-07   -0.32445E-08  3120   0.185E-03    0.821E-05
DAV:  20    -0.160674861259E+02   -0.23651E-08   -0.49233E-09  2712   0.582E-04
   1 F= -.16067486E+02 E0= -.16067664E+02  d E =-.160675E+02  mag=     0.0000
 curvature:   0.00 expect dE= 0.000E+00 dE for cont linesearch  0.000E+00
 trial: gam= 0.00000 g(F)=  0.256E+00 g(S)=  0.735E+01 ort = 0.000E+00 (trialstep = 0.100E+01)
 search vector abs. value=  0.760E+01
 bond charge predicted
       N       E                     dE             d eps       ncg     rms          rms(c)
DAV:   1    -0.128156289453E+03   -0.11209E+03   -0.21419E+03  4944   0.747E+02    0.727E+01
DAV:   2    -0.258483295748E+02    0.10231E+03   -0.46072E+02  5224   0.197E+02    0.186E+01
DAV:   3    -0.340412703232E+02   -0.81929E+01   -0.22618E+02  5268   0.127E+02    0.311E+01
DAV:   4    -0.180136375704E+02    0.16028E+02   -0.51686E+01  6232   0.880E+01    0.706E+00
DAV:   5    -0.177246105592E+02    0.28903E+00   -0.12971E+01  5468   0.329E+01    0.836E+00
DAV:   6    -0.168672039177E+02    0.85741E+00   -0.15130E+00  6920   0.115E+01    0.227E+00
DAV:   7    -0.168599119068E+02    0.72920E-02   -0.64223E-01  5628   0.727E+00    0.196E+00
DAV:   8    -0.168341438472E+02    0.25768E-01   -0.23921E-01  5592   0.419E+00    0.407E-01
DAV:   9    -0.168328911611E+02    0.12527E-02   -0.93189E-03  5604   0.818E-01    0.344E-02
DAV:  10    -0.168328948174E+02   -0.36563E-05   -0.15736E-04  5540   0.839E-02    0.853E-03
DAV:  11    -0.168329289787E+02   -0.34161E-04   -0.20952E-04  5624   0.132E-01    0.661E-02
DAV:  12    -0.168328957211E+02    0.33258E-04   -0.15607E-04  5588   0.107E-01    0.390E-03
DAV:  13    -0.168328962083E+02   -0.48716E-06   -0.66315E-06  6192   0.165E-02    0.648E-03
DAV:  14    -0.168328959830E+02    0.22529E-06   -0.26868E-07  5608   0.426E-03    0.456E-03
DAV:  15    -0.168328957351E+02    0.24787E-06   -0.51427E-07  6548   0.550E-03    0.107E-03
DAV:  16    -0.168328956909E+02    0.44193E-07   -0.13405E-07  5848   0.280E-03    0.691E-04
DAV:  17    -0.168328956856E+02    0.52719E-08   -0.39881E-09  2704   0.450E-04
   2 F= -.16832896E+02 E0= -.16833064E+02  d E =-.765410E+00  mag=     0.0000
 trial-energy change:   -0.765410  1 .order   -1.246317   -7.603653    5.111019
 step:   0.5417(harm=  0.5980)  dis= 0.03012  next Energy=   -18.050431 (dE=-0.198E+01)
 bond charge predicted
       N       E                     dE             d eps       ncg     rms          rms(c)
DAV:   1    -0.847802827580E+02   -0.67947E+02   -0.66588E+02  5904   0.284E+02    0.819E+01
DAV:   2    -0.163435420068E+03   -0.78655E+02   -0.17356E+03  7224   0.378E+02    0.806E+01
DAV:   3    -0.374718919434E+02    0.12596E+03   -0.72201E+02  6056   0.188E+02    0.256E+01
DAV:   4    -0.304086970564E+02    0.70632E+01   -0.29093E+01  5520   0.455E+01    0.198E+01
DAV:   5    -0.214734806748E+02    0.89352E+01   -0.90688E+00  5988   0.399E+01    0.122E+01
DAV:   6    -0.238649307129E+02   -0.23915E+01   -0.59951E+01  6748   0.881E+01    0.315E+01
DAV:   7    -0.187159962655E+02    0.51489E+01   -0.15760E+01  6112   0.269E+01    0.114E+01
DAV:   8    -0.190286799418E+02   -0.31268E+00   -0.28108E-01  5784   0.440E+00    0.130E+01
DAV:   9    -0.179860124954E+02    0.10427E+01   -0.11819E+01  6004   0.271E+01    0.360E+00
DAV:  10    -0.179610928879E+02    0.24920E-01   -0.15069E-01  5224   0.354E+00    0.308E+00
DAV:  11    -0.179468506838E+02    0.14242E-01   -0.17111E-02  5396   0.158E+00    0.270E+00
DAV:  12    -0.179067627948E+02    0.40088E-01   -0.38801E-02  5684   0.228E+00    0.180E+00
DAV:  13    -0.178893768960E+02    0.17386E-01   -0.15279E-02  7168   0.112E+00    0.126E+00
DAV:  14    -0.178826550645E+02    0.67218E-02   -0.43305E-03  7228   0.552E-01    0.100E+00
DAV:  15    -0.178765829754E+02    0.60721E-02   -0.71209E-03  6712   0.829E-01    0.610E-01
DAV:  16    -0.178733225647E+02    0.32604E-02   -0.89558E-03  6932   0.890E-01    0.162E-01
DAV:  17    -0.178731158530E+02    0.20671E-03   -0.64334E-04  7456   0.172E-01    0.736E-02
DAV:  18    -0.178730851422E+02    0.30711E-04   -0.66253E-04  6816   0.209E-01    0.430E-02
DAV:  19    -0.178730694964E+02    0.15646E-04   -0.65818E-05  6468   0.751E-02    0.125E-02
DAV:  20    -0.178730665805E+02    0.29159E-05   -0.19245E-05  6456   0.284E-02    0.288E-03
DAV:  21    -0.178730667065E+02   -0.12596E-06   -0.11485E-06  5480   0.110E-02    0.129E-03
DAV:  22    -0.178730666403E+02    0.66206E-07   -0.32761E-07  5268   0.399E-03    0.114E-03
DAV:  23    -0.178730666453E+02   -0.50040E-08   -0.53200E-08  5468   0.160E-03
   3 F= -.17873067E+02 E0= -.17872981E+02  d E =-.180558E+01  mag=    -0.0000
 curvature:  -0.29 expect dE=-0.176E-01 dE for cont linesearch -0.687E-03
 ZBRENT: interpolating
 opt :   0.5323  next Energy=   -17.873691 (dE=-0.181E+01)
 bond charge predicted
       N       E                     dE             d eps       ncg     rms          rms(c)
DAV:   1    -0.179013285061E+02   -0.28262E-01   -0.25321E-01  5376   0.658E+00    0.198E+00
DAV:   2    -0.181048782537E+02   -0.20355E+00   -0.22030E+00  5544   0.160E+01    0.481E+00
DAV:   3    -0.178729133979E+02    0.23196E+00   -0.10102E+00  5432   0.125E+01    0.156E-01
DAV:   4    -0.178741709693E+02   -0.12576E-02   -0.19526E-02  5260   0.862E-01    0.270E-01
DAV:   5    -0.178736647032E+02    0.50627E-03   -0.27948E-03  6132   0.557E-01    0.187E-02
DAV:   6    -0.178736636783E+02    0.10249E-05   -0.39407E-05  5312   0.464E-02    0.617E-03
DAV:   7    -0.178736630564E+02    0.62194E-06   -0.21028E-06  5368   0.111E-02    0.375E-03
DAV:   8    -0.178736628462E+02    0.21020E-06   -0.91060E-07  7256   0.779E-03    0.509E-04
DAV:   9    -0.178736627679E+02    0.78282E-07   -0.45300E-08  5220   0.158E-03    0.530E-04
DAV:  10    -0.178736627446E+02    0.23276E-07   -0.83925E-09  2688   0.907E-04    0.833E-05
DAV:  11    -0.178736627347E+02    0.99521E-08   -0.15519E-09  2564   0.254E-04
   4 F= -.17873663E+02 E0= -.17873563E+02  d E =-.180618E+01  mag=    -0.0000
 curvature:  -0.27 expect dE=-0.147E-01 dE for cont linesearch -0.140E-04
 ZBRENT: interpolating
 opt :   0.5307  next Energy=   -17.873679 (dE=-0.181E+01)
 bond charge predicted
       N       E                     dE             d eps       ncg     rms          rms(c)
DAV:   1    -0.178745137727E+02   -0.85103E-03   -0.77428E-03  5376   0.116E+00    0.340E-01
DAV:   2    -0.178807310345E+02   -0.62173E-02   -0.64895E-02  5572   0.276E+00    0.890E-01
DAV:   3    -0.178736587623E+02    0.70723E-02   -0.36353E-02  5500   0.213E+00    0.334E-02
DAV:   4    -0.178736801285E+02   -0.21366E-04   -0.35190E-04  5064   0.103E-01    0.283E-02
DAV:   5    -0.178736750153E+02    0.51132E-05   -0.27972E-05  6144   0.564E-02    0.232E-03
DAV:   6    -0.178736749467E+02    0.68545E-07   -0.66777E-07  5288   0.874E-03    0.890E-04
DAV:   7    -0.178736749221E+02    0.24662E-07   -0.53191E-08  3808   0.202E-03    0.207E-04
DAV:   8    -0.178736749033E+02    0.18760E-07   -0.65634E-09  2768   0.827E-04    0.434E-05
DAV:   9    -0.178736748990E+02    0.43583E-08   -0.18607E-09  2592   0.492E-04
   5 F= -.17873675E+02 E0= -.17873572E+02  d E =-.180619E+01  mag=     0.0000
 curvature:  -0.31 expect dE=-0.172E-01 dE for cont linesearch -0.391E-07
 trial: gam= 0.00734 g(F)=  0.215E-01 g(S)=  0.333E-01 ort =-0.975E-03 (trialstep = 0.906E+00)
 search vector abs. value=  0.552E-01
 bond charge predicted
       N       E                     dE             d eps       ncg     rms          rms(c)
DAV:   1    -0.180145905430E+02   -0.14092E+00   -0.26739E+00  5400   0.147E+01    0.290E+00
DAV:   2    -0.181333532591E+02   -0.11876E+00   -0.20959E+00  5456   0.158E+01    0.467E+00
DAV:   3    -0.179245809602E+02    0.20877E+00   -0.11135E+00  5508   0.132E+01    0.105E+00
DAV:   4    -0.179113123137E+02    0.13269E-01   -0.46029E-02  5828   0.172E+00    0.251E-01
DAV:   5    -0.179108327866E+02    0.47953E-03   -0.53780E-03  5924   0.770E-01    0.734E-02
DAV:   6    -0.179108027910E+02    0.29996E-04   -0.55946E-04  5880   0.257E-01    0.331E-02
DAV:   7    -0.179107988436E+02    0.39474E-05   -0.45752E-05  6052   0.772E-02    0.494E-03
DAV:   8    -0.179107994107E+02   -0.56706E-06   -0.15650E-06  5556   0.860E-03    0.158E-03
DAV:   9    -0.179107993093E+02    0.10145E-06   -0.17056E-07  5624   0.461E-03    0.273E-04
DAV:  10    -0.179107993007E+02    0.86015E-08   -0.93962E-09  2912   0.972E-04
   6 F= -.17910799E+02 E0= -.17910628E+02  d E =-.371244E-01  mag=    -0.0000
 trial-energy change:   -0.037124  1 .order   -0.035747   -0.049691   -0.021802
 step:   1.3928(harm=  1.6145)  dis= 0.02300  next Energy=   -17.916868 (dE=-0.432E-01)
 bond charge predicted
       N       E                     dE             d eps       ncg     rms          rms(c)
DAV:   1    -0.179493611454E+02   -0.38562E-01   -0.78666E-01  5372   0.811E+00    0.159E+00
DAV:   2    -0.179850911331E+02   -0.35730E-01   -0.61401E-01  5492   0.870E+00    0.262E+00
DAV:   3    -0.179224635233E+02    0.62628E-01   -0.36058E-01  5496   0.720E+00    0.597E-01
DAV:   4    -0.179182468792E+02    0.42166E-02   -0.13865E-02  5828   0.992E-01    0.117E-01
DAV:   5    -0.179181393436E+02    0.10754E-03   -0.10042E-03  5908   0.323E-01    0.282E-02
DAV:   6    -0.179181364026E+02    0.29410E-05   -0.75081E-05  5600   0.909E-02    0.135E-02
DAV:   7    -0.179181364296E+02   -0.27017E-07   -0.98023E-06  5680   0.363E-02    0.316E-03
DAV:   8    -0.179181363530E+02    0.76578E-07   -0.48374E-07  6068   0.758E-03    0.548E-04
DAV:   9    -0.179181363250E+02    0.28025E-07   -0.29716E-08  4216   0.182E-03    0.121E-04
DAV:  10    -0.179181363183E+02    0.67030E-08   -0.21494E-09  2688   0.397E-04
   7 F= -.17918136E+02 E0= -.17917859E+02  d E =-.444614E-01  mag=    -0.0000
 curvature:  -0.73 expect dE=-0.269E-02 dE for cont linesearch -0.542E-03
 ZBRENT: extrapolating
 opt :   1.5689  next Energy=   -17.918699 (dE=-0.450E-01)
 bond charge predicted
       N       E                     dE             d eps       ncg     rms          rms(c)
DAV:   1    -0.179228441166E+02   -0.47078E-02   -0.10424E-01  5376   0.297E+00    0.579E-01
DAV:   2    -0.179278694308E+02   -0.50253E-02   -0.79782E-02  5468   0.320E+00    0.982E-01
DAV:   3    -0.179193135228E+02    0.85559E-02   -0.50924E-02  5580   0.263E+00    0.218E-01
DAV:   4    -0.179187743334E+02    0.53919E-03   -0.17583E-03  5828   0.363E-01    0.394E-02
DAV:   5    -0.179187617093E+02    0.12624E-04   -0.10897E-04  5912   0.103E-01    0.103E-02
DAV:   6    -0.179187613330E+02    0.37636E-06   -0.73510E-06  5588   0.280E-02    0.390E-03
DAV:   7    -0.179187614063E+02   -0.73365E-07   -0.75072E-07  5528   0.951E-03    0.941E-04
DAV:   8    -0.179187613810E+02    0.25311E-07   -0.34139E-08  4788   0.195E-03    0.263E-04
DAV:   9    -0.179187613721E+02    0.88971E-08   -0.33691E-09  2692   0.706E-04
   8 F= -.17918761E+02 E0= -.17918455E+02  d E =-.450865E-01  mag=    -0.0000
 curvature:  -0.76 expect dE=-0.259E-02 dE for cont linesearch -0.113E-04
 ZBRENT: extrapolating
 opt :   1.5991  next Energy=   -17.918775 (dE=-0.451E-01)
 bond charge predicted
       N       E                     dE             d eps       ncg     rms          rms(c)
DAV:   1    -0.179188920190E+02   -0.13064E-03   -0.30964E-03  5400   0.513E-01    0.996E-02
DAV:   2    -0.179190437053E+02   -0.15169E-03   -0.23584E-03  5484   0.552E-01    0.171E-01
DAV:   3    -0.179187879165E+02    0.25579E-03   -0.15485E-03  5580   0.451E-01    0.378E-02
DAV:   4    -0.179187719349E+02    0.15982E-04   -0.52181E-05  5812   0.634E-02    0.655E-03
DAV:   5    -0.179187715939E+02    0.34103E-06   -0.30585E-06  5904   0.170E-02    0.175E-03
DAV:   6    -0.179187715745E+02    0.19382E-07   -0.19917E-07  5544   0.455E-03    0.642E-04
DAV:   7    -0.179187715746E+02   -0.72760E-10   -0.17044E-08  3084   0.146E-03
   9 F= -.17918772E+02 E0= -.17918465E+02  d E =-.450967E-01  mag=    -0.0000
 curvature:  -0.89 expect dE=-0.309E-02 dE for cont linesearch -0.776E-10
 trial: gam= 0.07192 g(F)=  0.289E-04 g(S)=  0.346E-02 ort = 0.220E-05 (trialstep = 0.104E+01)
 search vector abs. value=  0.377E-02
 bond charge predicted
       N       E                     dE             d eps       ncg     rms          rms(c)
DAV:   1    -0.179659166810E+02   -0.47145E-01   -0.61193E-01  5528   0.889E+00    0.223E+00
DAV:   2    -0.181954453534E+02   -0.22953E+00   -0.24462E+00  5752   0.175E+01    0.592E+00
DAV:   3    -0.179229727801E+02    0.27247E+00   -0.17301E+00  5528   0.132E+01    0.538E-01
DAV:   4    -0.179211148241E+02    0.18580E-02   -0.23131E-02  5160   0.131E+00    0.666E-02
DAV:   5    -0.179211177849E+02   -0.29608E-05   -0.48920E-04  5608   0.177E-01    0.328E-02
DAV:   6    -0.179211083462E+02    0.94388E-05   -0.31180E-05  6184   0.630E-02    0.177E-02
DAV:   7    -0.179211073150E+02    0.10312E-05   -0.10215E-05  6696   0.285E-02    0.281E-03
DAV:   8    -0.179211075203E+02   -0.20529E-06   -0.37257E-07  5420   0.603E-03    0.616E-04
DAV:   9    -0.179211075510E+02   -0.30665E-07   -0.16315E-08  3064   0.128E-03    0.162E-04
DAV:  10    -0.179211075717E+02   -0.20767E-07   -0.39842E-09  2628   0.782E-04    0.126E-04
DAV:  11    -0.179211075723E+02   -0.60209E-09   -0.67886E-10  2600   0.294E-04
  10 F= -.17921108E+02 E0= -.17920679E+02  d E =-.233600E-02  mag=    -0.0000
 trial-energy change:   -0.002336  1 .order   -0.002391   -0.003645   -0.001138
 step:   1.6428(harm=  1.5187)  dis= 0.00292  next Energy=   -17.921423 (dE=-0.265E-02)
 bond charge predicted
       N       E                     dE             d eps       ncg     rms          rms(c)
DAV:   1    -0.179358986110E+02   -0.14791E-01   -0.19877E-01  5536   0.504E+00    0.128E+00
DAV:   2    -0.180109846286E+02   -0.75086E-01   -0.81114E-01  5688   0.101E+01    0.327E+00
DAV:   3    -0.179217846182E+02    0.89200E-01   -0.52615E-01  5560   0.764E+00    0.267E-01
DAV:   4    -0.179213950014E+02    0.38962E-03   -0.63683E-03  5144   0.619E-01    0.559E-02
DAV:   5    -0.179213865267E+02    0.84747E-05   -0.17098E-04  5800   0.128E-01    0.164E-02
DAV:   6    -0.179213841164E+02    0.24103E-05   -0.70047E-06  6532   0.275E-02    0.758E-03
DAV:   7    -0.179213841612E+02   -0.44804E-07   -0.16285E-06  6560   0.109E-02    0.131E-03
DAV:   8    -0.179213842482E+02   -0.86965E-07   -0.91099E-08  5568   0.323E-03    0.265E-04
DAV:   9    -0.179213842687E+02   -0.20532E-07   -0.24871E-09  2720   0.534E-04    0.876E-05
DAV:  10    -0.179213842750E+02   -0.63314E-08   -0.65646E-10  2608   0.316E-04
  11 F= -.17921384E+02 E0= -.17920960E+02  d E =-.261270E-02  mag=     0.0000
 curvature:  -0.77 expect dE=-0.121E-02 dE for cont linesearch -0.747E-05
 trial: gam= 0.53322 g(F)=  0.803E-04 g(S)=  0.150E-02 ort =-0.192E-03 (trialstep = 0.116E+01)
 search vector abs. value=  0.245E-02
 bond charge predicted
       N       E                     dE             d eps       ncg     rms          rms(c)
DAV:   1    -0.179640121831E+02   -0.42628E-01   -0.52525E-01  5512   0.861E+00    0.230E+00
DAV:   2    -0.181781711145E+02   -0.21416E+00   -0.24608E+00  5520   0.177E+01    0.502E+00
DAV:   3    -0.179217508871E+02    0.25642E+00   -0.11373E+00  5480   0.137E+01    0.304E-01
DAV:   4    -0.179221807288E+02   -0.42984E-03   -0.22673E-02  5296   0.931E-01    0.285E-01
DAV:   5    -0.179215682567E+02    0.61247E-03   -0.35941E-03  6168   0.644E-01    0.257E-02
DAV:   6    -0.179215603254E+02    0.79313E-05   -0.84189E-05  5368   0.929E-02    0.841E-03
DAV:   7    -0.179215604348E+02   -0.10942E-06   -0.23373E-06  6168   0.127E-02    0.211E-03
DAV:   8    -0.179215602630E+02    0.17174E-06   -0.18375E-07  5336   0.354E-03    0.806E-04
DAV:   9    -0.179215602263E+02    0.36694E-07   -0.15243E-08  3596   0.118E-03    0.388E-04
DAV:  10    -0.179215602054E+02    0.20975E-07   -0.58498E-09  2688   0.728E-04    0.509E-05
DAV:  11    -0.179215602010E+02    0.43688E-08   -0.10656E-09  2592   0.283E-04
  12 F= -.17921560E+02 E0= -.17921169E+02  d E =-.175926E-03  mag=     0.0000
 trial-energy change:   -0.000176  1 .order   -0.000111   -0.001727    0.001504
 step:   0.6566(harm=  0.6223)  dis= 0.00127  next Energy=   -17.921883 (dE=-0.498E-03)
 bond charge predicted
       N       E                     dE             d eps       ncg     rms          rms(c)
DAV:   1    -0.179299083378E+02   -0.83481E-02   -0.10009E-01  5512   0.379E+00    0.981E-01
DAV:   2    -0.179705545494E+02   -0.40646E-01   -0.44264E-01  5608   0.757E+00    0.238E+00
DAV:   3    -0.179220537060E+02    0.48501E-01   -0.27907E-01  5488   0.571E+00    0.184E-01
DAV:   4    -0.179219200550E+02    0.13365E-03   -0.30066E-03  5200   0.404E-01    0.661E-02
DAV:   5    -0.179218866394E+02    0.33416E-04   -0.17208E-04  6512   0.137E-01    0.984E-03
DAV:   6    -0.179218849511E+02    0.16883E-05   -0.81496E-06  5348   0.330E-02    0.630E-03
DAV:   7    -0.179218847731E+02    0.17799E-06   -0.17946E-06  5692   0.147E-02    0.112E-03
DAV:   8    -0.179218848228E+02   -0.49653E-07   -0.59956E-08  5272   0.238E-03    0.413E-04
DAV:   9    -0.179218848460E+02   -0.23200E-07   -0.49557E-09  2744   0.763E-04    0.964E-05
DAV:  10    -0.179218848518E+02   -0.58362E-08   -0.10779E-09  2628   0.242E-04
  13 F= -.17921885E+02 E0= -.17921493E+02  d E =-.500577E-03  mag=    -0.0000
 curvature:  -0.51 expect dE=-0.674E-04 dE for cont linesearch -0.248E-07
 trial: gam=-0.06878 g(F)=  0.125E-04 g(S)=  0.119E-03 ort =-0.109E-04 (trialstep = 0.106E+01)
 search vector abs. value=  0.145E-03
 bond charge predicted
       N       E                     dE             d eps       ncg     rms          rms(c)
DAV:   1    -0.179249311341E+02   -0.30463E-02   -0.34089E-02  5528   0.225E+00    0.612E-01
DAV:   2    -0.179422511713E+02   -0.17320E-01   -0.18896E-01  5544   0.489E+00    0.149E+00
DAV:   3    -0.179219383672E+02    0.20313E-01   -0.10285E-01  5496   0.377E+00    0.874E-02
DAV:   4    -0.179219518122E+02   -0.13445E-04   -0.12839E-03  5136   0.217E-01    0.520E-02
DAV:   5    -0.179219339098E+02    0.17902E-04   -0.99604E-05  5988   0.109E-01    0.750E-03
DAV:   6    -0.179219336194E+02    0.29036E-06   -0.28326E-06  5552   0.142E-02    0.114E-03
DAV:   7    -0.179219335849E+02    0.34485E-07   -0.10828E-07  6516   0.276E-03    0.530E-04
DAV:   8    -0.179219335455E+02    0.39428E-07   -0.77411E-09  3028   0.102E-03    0.166E-04
DAV:   9    -0.179219335327E+02    0.12766E-07   -0.13894E-09  2624   0.314E-04    0.357E-05
DAV:  10    -0.179219335311E+02    0.16698E-08   -0.23439E-10  2568   0.165E-04
  14 F= -.17921934E+02 E0= -.17921536E+02  d E =-.486792E-04  mag=     0.0000
 trial-energy change:   -0.000049  1 .order   -0.000047   -0.000141    0.000046
 step:   0.8091(harm=  0.7991)  dis= 0.00021  next Energy=   -17.921939 (dE=-0.542E-04)
 bond charge predicted
       N       E                     dE             d eps       ncg     rms          rms(c)
DAV:   1    -0.179221097928E+02   -0.17626E-03   -0.19355E-03  5532   0.538E-01    0.145E-01
DAV:   2    -0.179230973577E+02   -0.98756E-03   -0.10748E-02  5612   0.116E+00    0.362E-01
DAV:   3    -0.179219391345E+02    0.11582E-02   -0.62109E-03  5520   0.889E-01    0.222E-02
DAV:   4    -0.179219394257E+02   -0.29116E-06   -0.68280E-05  5096   0.522E-02    0.994E-03
DAV:   5    -0.179219388046E+02    0.62108E-06   -0.35581E-06  5972   0.205E-02    0.167E-03
DAV:   6    -0.179219387837E+02    0.20877E-07   -0.12221E-07  5912   0.337E-03    0.451E-04
DAV:   7    -0.179219387903E+02   -0.65720E-08   -0.92437E-09  2760   0.993E-04
  15 F= -.17921939E+02 E0= -.17921543E+02  d E =-.539384E-04  mag=    -0.0000
 curvature:  -0.44 expect dE=-0.520E-06 dE for cont linesearch -0.258E-08
 trial: gam= 0.01414 g(F)=  0.886E-06 g(S)=  0.306E-06 ort =-0.924E-06 (trialstep = 0.101E+01)
 search vector abs. value=  0.119E-05
 reached required accuracy - stopping structural energy minimisation
 writing wavefunctions
