   5   5   0   0
  0.1285639E+02  0.4706777E-09  0.4706777E-09  0.4411190E-09  0.5000000E-15
  1.000000000000000E-004
  CAR 
 unknown system                          
     22.13528631    -58.35173549  301      9.05923874      1.00000000
    -58.352  0.0000E+00  0.0000E+00  0.0000E+00  0.0000E+00
    -58.083  0.0000E+00  0.0000E+00  0.0000E+00  0.0000E+00
    -57.815  0.0000E+00  0.0000E+00  0.0000E+00  0.0000E+00
    -57.547  0.0000E+00  0.0000E+00  0.0000E+00  0.0000E+00
    -57.279  0.0000E+00  0.0000E+00  0.0000E+00  0.0000E+00
    -57.010  0.0000E+00  0.0000E+00  0.0000E+00  0.0000E+00
    -56.742  0.0000E+00  0.0000E+00  0.0000E+00  0.0000E+00
    -56.474  0.0000E+00  0.0000E+00  0.0000E+00  0.0000E+00
    -56.205  0.0000E+00  0.0000E+00  0.0000E+00  0.0000E+00
    -55.937  0.0000E+00  0.0000E+00  0.0000E+00  0.0000E+00
    -55.669  0.0000E+00  0.0000E+00  0.0000E+00  0.0000E+00
    -55.401  0.0000E+00  0.0000E+00  0.0000E+00  0.0000E+00
    -55.132  0.0000E+00  0.0000E+00  0.0000E+00  0.0000E+00
    -54.864  0.0000E+00  0.0000E+00  0.0000E+00  0.0000E+00
    -54.596  0.0000E+00  0.0000E+00  0.6000E+01  0.6000E+01
    -54.327  0.0000E+00  0.0000E+00  0.6000E+01  0.6000E+01
    -54.059  0.0000E+00  0.0000E+00  0.6000E+01  0.6000E+01
    -53.791  0.0000E+00  0.0000E+00  0.6000E+01  0.6000E+01
    -53.523  0.0000E+00  0.0000E+00  0.6000E+01  0.6000E+01
    -53.254  0.0000E+00  0.0000E+00  0.6000E+01  0.6000E+01
    -52.986  0.0000E+00  0.0000E+00  0.6000E+01  0.6000E+01
    -52.718  0.0000E+00  0.0000E+00  0.6000E+01  0.6000E+01
    -52.449  0.0000E+00  0.0000E+00  0.6000E+01  0.6000E+01
    -52.181  0.0000E+00  0.0000E+00  0.6000E+01  0.6000E+01
    -51.913  0.0000E+00  0.0000E+00  0.6000E+01  0.6000E+01
    -51.644  0.0000E+00  0.0000E+00  0.6000E+01  0.6000E+01
    -51.376  0.0000E+00  0.0000E+00  0.6000E+01  0.6000E+01
    -51.108  0.0000E+00  0.0000E+00  0.6000E+01  0.6000E+01
    -50.840  0.0000E+00  0.0000E+00  0.6000E+01  0.6000E+01
    -50.571  0.0000E+00  0.0000E+00  0.6000E+01  0.6000E+01
    -50.303  0.0000E+00  0.0000E+00  0.6000E+01  0.6000E+01
    -50.035  0.0000E+00  0.0000E+00  0.6000E+01  0.6000E+01
    -49.766  0.0000E+00  0.0000E+00  0.6000E+01  0.6000E+01
    -49.498  0.0000E+00  0.0000E+00  0.6000E+01  0.6000E+01
    -49.230  0.0000E+00  0.0000E+00  0.6000E+01  0.6000E+01
    -48.962  0.0000E+00  0.0000E+00  0.6000E+01  0.6000E+01
    -48.693  0.0000E+00  0.0000E+00  0.6000E+01  0.6000E+01
    -48.425  0.0000E+00  0.0000E+00  0.6000E+01  0.6000E+01
    -48.157  0.0000E+00  0.0000E+00  0.6000E+01  0.6000E+01
    -47.888  0.0000E+00  0.0000E+00  0.6000E+01  0.6000E+01
    -47.620  0.0000E+00  0.0000E+00  0.6000E+01  0.6000E+01
    -47.352  0.0000E+00  0.0000E+00  0.6000E+01  0.6000E+01
    -47.084  0.0000E+00  0.0000E+00  0.6000E+01  0.6000E+01
    -46.815  0.0000E+00  0.0000E+00  0.6000E+01  0.6000E+01
    -46.547  0.0000E+00  0.0000E+00  0.6000E+01  0.6000E+01
    -46.279  0.0000E+00  0.0000E+00  0.6000E+01  0.6000E+01
    -46.010  0.0000E+00  0.0000E+00  0.6000E+01  0.6000E+01
    -45.742  0.0000E+00  0.0000E+00  0.6000E+01  0.6000E+01
    -45.474  0.0000E+00  0.0000E+00  0.6000E+01  0.6000E+01
    -45.206  0.0000E+00  0.0000E+00  0.6000E+01  0.6000E+01
    -44.937  0.0000E+00  0.0000E+00  0.6000E+01  0.6000E+01
    -44.669  0.0000E+00  0.0000E+00  0.6000E+01  0.6000E+01
    -44.401  0.0000E+00  0.0000E+00  0.6000E+01  0.6000E+01
    -44.132  0.0000E+00  0.0000E+00  0.6000E+01  0.6000E+01
    -43.864  0.0000E+00  0.0000E+00  0.6000E+01  0.6000E+01
    -43.596  0.0000E+00  0.0000E+00  0.6000E+01  0.6000E+01
    -43.327  0.0000E+00  0.0000E+00  0.6000E+01  0.6000E+01
    -43.059  0.0000E+00  0.0000E+00  0.6000E+01  0.6000E+01
    -42.791  0.0000E+00  0.0000E+00  0.6000E+01  0.6000E+01
    -42.523  0.0000E+00  0.0000E+00  0.6000E+01  0.6000E+01
    -42.254  0.0000E+00  0.0000E+00  0.6000E+01  0.6000E+01
    -41.986  0.0000E+00  0.0000E+00  0.6000E+01  0.6000E+01
    -41.718  0.0000E+00  0.0000E+00  0.6000E+01  0.6000E+01
    -41.449  0.0000E+00  0.0000E+00  0.6000E+01  0.6000E+01
    -41.181  0.0000E+00  0.0000E+00  0.6000E+01  0.6000E+01
    -40.913  0.0000E+00  0.0000E+00  0.6000E+01  0.6000E+01
    -40.645  0.0000E+00  0.0000E+00  0.6000E+01  0.6000E+01
    -40.376  0.0000E+00  0.0000E+00  0.6000E+01  0.6000E+01
    -40.108  0.0000E+00  0.0000E+00  0.6000E+01  0.6000E+01
    -39.840  0.0000E+00  0.0000E+00  0.6000E+01  0.6000E+01
    -39.571  0.0000E+00  0.0000E+00  0.6000E+01  0.6000E+01
    -39.303  0.0000E+00  0.0000E+00  0.6000E+01  0.6000E+01
    -39.035  0.0000E+00  0.0000E+00  0.6000E+01  0.6000E+01
    -38.767  0.0000E+00  0.0000E+00  0.6000E+01  0.6000E+01
    -38.498  0.0000E+00  0.0000E+00  0.6000E+01  0.6000E+01
    -38.230  0.0000E+00  0.0000E+00  0.6000E+01  0.6000E+01
    -37.962  0.0000E+00  0.0000E+00  0.6000E+01  0.6000E+01
    -37.693  0.0000E+00  0.0000E+00  0.6000E+01  0.6000E+01
    -37.425  0.0000E+00  0.0000E+00  0.6000E+01  0.6000E+01
    -37.157  0.0000E+00  0.0000E+00  0.6000E+01  0.6000E+01
    -36.889  0.0000E+00  0.0000E+00  0.6000E+01  0.6000E+01
    -36.620  0.0000E+00  0.0000E+00  0.6000E+01  0.6000E+01
    -36.352  0.0000E+00  0.0000E+00  0.6000E+01  0.6000E+01
    -36.084  0.0000E+00  0.0000E+00  0.6000E+01  0.6000E+01
    -35.815  0.0000E+00  0.0000E+00  0.6000E+01  0.6000E+01
    -35.547  0.0000E+00  0.0000E+00  0.6000E+01  0.6000E+01
    -35.279  0.0000E+00  0.0000E+00  0.6000E+01  0.6000E+01
    -35.010  0.0000E+00  0.0000E+00  0.6000E+01  0.6000E+01
    -34.742  0.0000E+00  0.0000E+00  0.6000E+01  0.6000E+01
    -34.474  0.0000E+00  0.0000E+00  0.6000E+01  0.6000E+01
    -34.206  0.0000E+00  0.0000E+00  0.6000E+01  0.6000E+01
    -33.937  0.0000E+00  0.0000E+00  0.6000E+01  0.6000E+01
    -33.669  0.0000E+00  0.0000E+00  0.6000E+01  0.6000E+01
    -33.401  0.0000E+00  0.0000E+00  0.6000E+01  0.6000E+01
    -33.132  0.0000E+00  0.0000E+00  0.6000E+01  0.6000E+01
    -32.864  0.0000E+00  0.0000E+00  0.6000E+01  0.6000E+01
    -32.596  0.0000E+00  0.0000E+00  0.6000E+01  0.6000E+01
    -32.328  0.0000E+00  0.0000E+00  0.6000E+01  0.6000E+01
    -32.059  0.0000E+00  0.0000E+00  0.6000E+01  0.6000E+01
    -31.791  0.0000E+00  0.0000E+00  0.6000E+01  0.6000E+01
    -31.523  0.0000E+00  0.0000E+00  0.6000E+01  0.6000E+01
    -31.254  0.0000E+00  0.0000E+00  0.6000E+01  0.6000E+01
    -30.986  0.0000E+00  0.0000E+00  0.6000E+01  0.6000E+01
    -30.718  0.0000E+00  0.0000E+00  0.6000E+01  0.6000E+01
    -30.450  0.0000E+00  0.0000E+00  0.6000E+01  0.6000E+01
    -30.181  0.0000E+00  0.0000E+00  0.6000E+01  0.6000E+01
    -29.913  0.0000E+00  0.0000E+00  0.6000E+01  0.6000E+01
    -29.645  0.0000E+00  0.0000E+00  0.6000E+01  0.6000E+01
    -29.376  0.0000E+00  0.0000E+00  0.6000E+01  0.6000E+01
    -29.108  0.0000E+00  0.0000E+00  0.6000E+01  0.6000E+01
    -28.840  0.0000E+00  0.0000E+00  0.6000E+01  0.6000E+01
    -28.572  0.0000E+00  0.0000E+00  0.6000E+01  0.6000E+01
    -28.303  0.0000E+00  0.0000E+00  0.6000E+01  0.6000E+01
    -28.035  0.0000E+00  0.0000E+00  0.6000E+01  0.6000E+01
    -27.767  0.0000E+00  0.0000E+00  0.6000E+01  0.6000E+01
    -27.498  0.0000E+00  0.0000E+00  0.6000E+01  0.6000E+01
    -27.230  0.0000E+00  0.0000E+00  0.6000E+01  0.6000E+01
    -26.962  0.0000E+00  0.0000E+00  0.6000E+01  0.6000E+01
    -26.694  0.0000E+00  0.0000E+00  0.6000E+01  0.6000E+01
    -26.425  0.0000E+00  0.0000E+00  0.6000E+01  0.6000E+01
    -26.157  0.0000E+00  0.0000E+00  0.6000E+01  0.6000E+01
    -25.889  0.0000E+00  0.0000E+00  0.6000E+01  0.6000E+01
    -25.620  0.0000E+00  0.0000E+00  0.6000E+01  0.6000E+01
    -25.352  0.0000E+00  0.0000E+00  0.6000E+01  0.6000E+01
    -25.084  0.0000E+00  0.0000E+00  0.6000E+01  0.6000E+01
    -24.815  0.0000E+00  0.0000E+00  0.6000E+01  0.6000E+01
    -24.547  0.0000E+00  0.0000E+00  0.6000E+01  0.6000E+01
    -24.279  0.0000E+00  0.0000E+00  0.6000E+01  0.6000E+01
    -24.011  0.0000E+00  0.0000E+00  0.6000E+01  0.6000E+01
    -23.742  0.0000E+00  0.0000E+00  0.6000E+01  0.6000E+01
    -23.474  0.0000E+00  0.0000E+00  0.6000E+01  0.6000E+01
    -23.206  0.0000E+00  0.0000E+00  0.6000E+01  0.6000E+01
    -22.937  0.0000E+00  0.0000E+00  0.6000E+01  0.6000E+01
    -22.669  0.0000E+00  0.0000E+00  0.6000E+01  0.6000E+01
    -22.401  0.0000E+00  0.0000E+00  0.6000E+01  0.6000E+01
    -22.133  0.0000E+00  0.0000E+00  0.6000E+01  0.6000E+01
    -21.864  0.0000E+00  0.0000E+00  0.6000E+01  0.6000E+01
    -21.596  0.0000E+00  0.0000E+00  0.6000E+01  0.6000E+01
    -21.328  0.0000E+00  0.0000E+00  0.6000E+01  0.6000E+01
    -21.059  0.0000E+00  0.0000E+00  0.6000E+01  0.6000E+01
    -20.791  0.0000E+00  0.0000E+00  0.6000E+01  0.6000E+01
    -20.523  0.0000E+00  0.0000E+00  0.6000E+01  0.6000E+01
    -20.255  0.0000E+00  0.0000E+00  0.6000E+01  0.6000E+01
    -19.986  0.0000E+00  0.0000E+00  0.6000E+01  0.6000E+01
    -19.718  0.0000E+00  0.0000E+00  0.6000E+01  0.6000E+01
    -19.450  0.0000E+00  0.0000E+00  0.6000E+01  0.6000E+01
    -19.181  0.0000E+00  0.0000E+00  0.6000E+01  0.6000E+01
    -18.913  0.0000E+00  0.0000E+00  0.6000E+01  0.6000E+01
    -18.645  0.0000E+00  0.0000E+00  0.6000E+01  0.6000E+01
    -18.377  0.0000E+00  0.0000E+00  0.6000E+01  0.6000E+01
    -18.108  0.0000E+00  0.0000E+00  0.6000E+01  0.6000E+01
    -17.840  0.0000E+00  0.0000E+00  0.6000E+01  0.6000E+01
    -17.572  0.0000E+00  0.0000E+00  0.6000E+01  0.6000E+01
    -17.303  0.0000E+00  0.0000E+00  0.6000E+01  0.6000E+01
    -17.035  0.0000E+00  0.0000E+00  0.6000E+01  0.6000E+01
    -16.767  0.0000E+00  0.0000E+00  0.6000E+01  0.6000E+01
    -16.498  0.0000E+00  0.0000E+00  0.6000E+01  0.6000E+01
    -16.230  0.0000E+00  0.0000E+00  0.6000E+01  0.6000E+01
    -15.962  0.0000E+00  0.0000E+00  0.6000E+01  0.6000E+01
    -15.694  0.0000E+00  0.0000E+00  0.6000E+01  0.6000E+01
    -15.425  0.0000E+00  0.0000E+00  0.6000E+01  0.6000E+01
    -15.157  0.0000E+00  0.0000E+00  0.6000E+01  0.6000E+01
    -14.889  0.0000E+00  0.0000E+00  0.6000E+01  0.6000E+01
    -14.620  0.0000E+00  0.0000E+00  0.6000E+01  0.6000E+01
    -14.352  0.0000E+00  0.0000E+00  0.6000E+01  0.6000E+01
    -14.084  0.0000E+00  0.0000E+00  0.6000E+01  0.6000E+01
    -13.816  0.0000E+00  0.0000E+00  0.6000E+01  0.6000E+01
    -13.547  0.0000E+00  0.0000E+00  0.6000E+01  0.6000E+01
    -13.279  0.0000E+00  0.0000E+00  0.6000E+01  0.6000E+01
    -13.011  0.0000E+00  0.0000E+00  0.6000E+01  0.6000E+01
    -12.742  0.0000E+00  0.0000E+00  0.6000E+01  0.6000E+01
    -12.474  0.0000E+00  0.0000E+00  0.6000E+01  0.6000E+01
    -12.206  0.0000E+00  0.0000E+00  0.6000E+01  0.6000E+01
    -11.938  0.0000E+00  0.0000E+00  0.6000E+01  0.6000E+01
    -11.669  0.0000E+00  0.0000E+00  0.6000E+01  0.6000E+01
    -11.401  0.0000E+00  0.0000E+00  0.6000E+01  0.6000E+01
    -11.133  0.0000E+00  0.0000E+00  0.6000E+01  0.6000E+01
    -10.864  0.0000E+00  0.0000E+00  0.6000E+01  0.6000E+01
    -10.596  0.0000E+00  0.0000E+00  0.6000E+01  0.6000E+01
    -10.328  0.0000E+00  0.0000E+00  0.6000E+01  0.6000E+01
    -10.060  0.0000E+00  0.0000E+00  0.6000E+01  0.6000E+01
     -9.791  0.0000E+00  0.0000E+00  0.6000E+01  0.6000E+01
     -9.523  0.0000E+00  0.0000E+00  0.6000E+01  0.6000E+01
     -9.255  0.0000E+00  0.0000E+00  0.6000E+01  0.6000E+01
     -8.986  0.0000E+00  0.0000E+00  0.6000E+01  0.6000E+01
     -8.718  0.0000E+00  0.0000E+00  0.6000E+01  0.6000E+01
     -8.450  0.0000E+00  0.0000E+00  0.6000E+01  0.6000E+01
     -8.181  0.0000E+00  0.0000E+00  0.6000E+01  0.6000E+01
     -7.913  0.0000E+00  0.0000E+00  0.6000E+01  0.6000E+01
     -7.645  0.0000E+00  0.0000E+00  0.6000E+01  0.6000E+01
     -7.377  0.0000E+00  0.0000E+00  0.6000E+01  0.6000E+01
     -7.108  0.0000E+00  0.0000E+00  0.6000E+01  0.6000E+01
     -6.840  0.0000E+00  0.0000E+00  0.6000E+01  0.6000E+01
     -6.572  0.0000E+00  0.0000E+00  0.6000E+01  0.6000E+01
     -6.303  0.0000E+00  0.0000E+00  0.6000E+01  0.6000E+01
     -6.035  0.0000E+00  0.0000E+00  0.6000E+01  0.6000E+01
     -5.767  0.0000E+00  0.0000E+00  0.6000E+01  0.6000E+01
     -5.499  0.0000E+00  0.0000E+00  0.6000E+01  0.6000E+01
     -5.230  0.0000E+00  0.0000E+00  0.6000E+01  0.6000E+01
     -4.962  0.0000E+00  0.0000E+00  0.6000E+01  0.6000E+01
     -4.694  0.0000E+00  0.0000E+00  0.6000E+01  0.6000E+01
     -4.425  0.0000E+00  0.0000E+00  0.6000E+01  0.6000E+01
     -4.157  0.0000E+00  0.0000E+00  0.6000E+01  0.6000E+01
     -3.889  0.0000E+00  0.0000E+00  0.6000E+01  0.6000E+01
     -3.621  0.0000E+00  0.0000E+00  0.6000E+01  0.6000E+01
     -3.352  0.0000E+00  0.0000E+00  0.6000E+01  0.6000E+01
     -3.084  0.0000E+00  0.0000E+00  0.6000E+01  0.6000E+01
     -2.816  0.0000E+00  0.0000E+00  0.6000E+01  0.6000E+01
     -2.547  0.0000E+00  0.0000E+00  0.6000E+01  0.6000E+01
     -2.279  0.0000E+00  0.0000E+00  0.6000E+01  0.6000E+01
     -2.011  0.5300E-01  0.5300E-01  0.6004E+01  0.6004E+01
     -1.743  0.1276E+00  0.1276E+00  0.6033E+01  0.6033E+01
     -1.474  0.1812E+00  0.1812E+00  0.6075E+01  0.6075E+01
     -1.206  0.2171E+00  0.2171E+00  0.6128E+01  0.6128E+01
     -0.938  0.2633E+00  0.2633E+00  0.6193E+01  0.6193E+01
     -0.669  0.2998E+00  0.2998E+00  0.6268E+01  0.6268E+01
     -0.401  0.3944E+00  0.3944E+00  0.6360E+01  0.6360E+01
     -0.133  0.3677E+00  0.3677E+00  0.6463E+01  0.6463E+01
      0.136  0.3528E+00  0.3528E+00  0.6561E+01  0.6561E+01
      0.404  0.3796E+00  0.3796E+00  0.6659E+01  0.6659E+01
      0.672  0.4706E+00  0.4706E+00  0.6772E+01  0.6772E+01
      0.940  0.5281E+00  0.5281E+00  0.6911E+01  0.6911E+01
      1.209  0.3887E+00  0.3887E+00  0.7032E+01  0.7032E+01
      1.477  0.3717E+00  0.3717E+00  0.7132E+01  0.7132E+01
      1.745  0.4470E+00  0.4470E+00  0.7237E+01  0.7237E+01
      2.014  0.6333E+00  0.6333E+00  0.7381E+01  0.7381E+01
      2.282  0.6286E+00  0.6286E+00  0.7558E+01  0.7558E+01
      2.550  0.5427E+00  0.5427E+00  0.7709E+01  0.7709E+01
      2.818  0.5285E+00  0.5285E+00  0.7850E+01  0.7850E+01
      3.087  0.7090E+00  0.7090E+00  0.8011E+01  0.8011E+01
      3.355  0.7855E+00  0.7855E+00  0.8217E+01  0.8217E+01
      3.623  0.7686E+00  0.7686E+00  0.8425E+01  0.8425E+01
      3.892  0.8166E+00  0.8166E+00  0.8641E+01  0.8641E+01
      4.160  0.8188E+00  0.8188E+00  0.8856E+01  0.8856E+01
      4.428  0.9735E+00  0.9735E+00  0.9096E+01  0.9096E+01
      4.696  0.1101E+01  0.1101E+01  0.9375E+01  0.9375E+01
      4.965  0.1034E+01  0.1034E+01  0.9676E+01  0.9676E+01
      5.233  0.1316E+01  0.1316E+01  0.9950E+01  0.9950E+01
      5.501  0.2168E+01  0.2168E+01  0.1043E+02  0.1043E+02
      5.770  0.2302E+01  0.2302E+01  0.1095E+02  0.1095E+02
      6.038  0.4382E+01  0.4382E+01  0.1180E+02  0.1180E+02
      6.306  0.3479E+01  0.3479E+01  0.1278E+02  0.1278E+02
      6.574  0.4618E+01  0.4618E+01  0.1408E+02  0.1408E+02
      6.843  0.3438E+01  0.3438E+01  0.1520E+02  0.1520E+02
      7.111  0.6055E+01  0.6055E+01  0.1640E+02  0.1640E+02
      7.379  0.3519E+01  0.3519E+01  0.1759E+02  0.1759E+02
      7.648  0.3171E+01  0.3171E+01  0.1868E+02  0.1868E+02
      7.916  0.1404E+01  0.1404E+01  0.1922E+02  0.1922E+02
      8.184  0.1246E+01  0.1246E+01  0.1958E+02  0.1958E+02
      8.452  0.8856E+00  0.8856E+00  0.1986E+02  0.1986E+02
      8.721  0.1082E+01  0.1082E+01  0.2011E+02  0.2011E+02
      8.989  0.1157E+01  0.1157E+01  0.2043E+02  0.2043E+02
      9.257  0.5834E+00  0.5834E+00  0.2064E+02  0.2064E+02
      9.526  0.4700E+00  0.4700E+00  0.2078E+02  0.2078E+02
      9.794  0.1091E+01  0.1091E+01  0.2097E+02  0.2097E+02
     10.062  0.1046E+01  0.1046E+01  0.2126E+02  0.2126E+02
     10.331  0.9491E+00  0.9491E+00  0.2153E+02  0.2153E+02
     10.599  0.1014E+01  0.1014E+01  0.2179E+02  0.2179E+02
     10.867  0.1036E+01  0.1036E+01  0.2206E+02  0.2206E+02
     11.135  0.1101E+01  0.1101E+01  0.2235E+02  0.2235E+02
     11.404  0.1171E+01  0.1171E+01  0.2264E+02  0.2264E+02
     11.672  0.8552E+00  0.8552E+00  0.2289E+02  0.2289E+02
     11.940  0.9307E+00  0.9307E+00  0.2313E+02  0.2313E+02
     12.209  0.8934E+00  0.8934E+00  0.2338E+02  0.2338E+02
     12.477  0.9354E+00  0.9354E+00  0.2363E+02  0.2363E+02
     12.745  0.9600E+00  0.9600E+00  0.2389E+02  0.2389E+02
     13.013  0.8690E+00  0.8690E+00  0.2413E+02  0.2413E+02
     13.282  0.9666E+00  0.9666E+00  0.2437E+02  0.2437E+02
     13.550  0.1041E+01  0.1041E+01  0.2464E+02  0.2464E+02
     13.818  0.1110E+01  0.1110E+01  0.2493E+02  0.2493E+02
     14.087  0.9716E+00  0.9716E+00  0.2521E+02  0.2521E+02
     14.355  0.9402E+00  0.9402E+00  0.2546E+02  0.2546E+02
     14.623  0.1029E+01  0.1029E+01  0.2574E+02  0.2574E+02
     14.891  0.8893E+00  0.8893E+00  0.2600E+02  0.2600E+02
     15.160  0.8655E+00  0.8655E+00  0.2624E+02  0.2624E+02
     15.428  0.1009E+01  0.1009E+01  0.2649E+02  0.2649E+02
     15.696  0.9572E+00  0.9572E+00  0.2676E+02  0.2676E+02
     15.965  0.8887E+00  0.8887E+00  0.2701E+02  0.2701E+02
     16.233  0.7939E+00  0.7939E+00  0.2724E+02  0.2724E+02
     16.501  0.8509E+00  0.8509E+00  0.2745E+02  0.2745E+02
     16.769  0.7501E+00  0.7501E+00  0.2767E+02  0.2767E+02
     17.038  0.4846E+00  0.4846E+00  0.2786E+02  0.2786E+02
     17.306  0.1840E+00  0.1840E+00  0.2793E+02  0.2793E+02
     17.574  0.9139E-01  0.9139E-01  0.2797E+02  0.2797E+02
     17.843  0.4986E-01  0.4986E-01  0.2798E+02  0.2798E+02
     18.111  0.2807E-01  0.2807E-01  0.2799E+02  0.2799E+02
     18.379  0.9278E-02  0.9278E-02  0.2800E+02  0.2800E+02
     18.648  0.0000E+00  0.0000E+00  0.2800E+02  0.2800E+02
     18.916  0.0000E+00  0.0000E+00  0.2800E+02  0.2800E+02
     19.184  0.0000E+00  0.0000E+00  0.2800E+02  0.2800E+02
     19.452  0.0000E+00  0.0000E+00  0.2800E+02  0.2800E+02
     19.721  0.0000E+00  0.0000E+00  0.2800E+02  0.2800E+02
     19.989  0.0000E+00  0.0000E+00  0.2800E+02  0.2800E+02
     20.257  0.0000E+00  0.0000E+00  0.2800E+02  0.2800E+02
     20.526  0.0000E+00  0.0000E+00  0.2800E+02  0.2800E+02
     20.794  0.0000E+00  0.0000E+00  0.2800E+02  0.2800E+02
     21.062  0.0000E+00  0.0000E+00  0.2800E+02  0.2800E+02
     21.330  0.0000E+00  0.0000E+00  0.2800E+02  0.2800E+02
     21.599  0.0000E+00  0.0000E+00  0.2800E+02  0.2800E+02
     21.867  0.0000E+00  0.0000E+00  0.2800E+02  0.2800E+02
     22.135  0.0000E+00  0.0000E+00  0.2800E+02  0.2800E+02
