       N       E                     dE             d eps       ncg     rms          rms(c)
DAV:   1     0.356222920910E+03    0.35622E+03   -0.23920E+04  9624   0.152E+03
DAV:   2    -0.116937913267E+02   -0.36792E+03   -0.35610E+03  7696   0.455E+02
DAV:   3    -0.266509560336E+02   -0.14957E+02   -0.14461E+02  9084   0.105E+02
DAV:   4    -0.269866280506E+02   -0.33567E+00   -0.33466E+00  8652   0.154E+01
DAV:   5    -0.269958465326E+02   -0.92185E-02   -0.92177E-02  8712   0.280E+00    0.232E+01
DAV:   6    -0.381387604301E+02   -0.11143E+02   -0.11846E+02  8372   0.153E+02    0.302E+01
DAV:   7    -0.240438118504E+02    0.14095E+02   -0.37311E+01  8352   0.995E+01    0.497E+00
DAV:   8    -0.238933778578E+02    0.15043E+00   -0.33013E+00 10488   0.179E+01    0.210E+00
DAV:   9    -0.238613258022E+02    0.32052E-01   -0.34923E-01  9084   0.805E+00    0.108E+00
DAV:  10    -0.238453364708E+02    0.15989E-01   -0.54443E-02  9380   0.334E+00    0.186E-01
DAV:  11    -0.238456284755E+02   -0.29200E-03   -0.28036E-03  8268   0.412E-01    0.166E-01
DAV:  12    -0.238452898880E+02    0.33859E-03   -0.43523E-04 11364   0.230E-01    0.727E-02
DAV:  13    -0.238452327563E+02    0.57132E-04   -0.20177E-04 11296   0.166E-01    0.781E-03
DAV:  14    -0.238452332429E+02   -0.48654E-06   -0.15522E-05 10748   0.408E-02    0.115E-02
DAV:  15    -0.238452319284E+02    0.13145E-05   -0.16685E-06  8860   0.176E-02    0.489E-03
DAV:  16    -0.238452315598E+02    0.36853E-06   -0.64981E-07 11292   0.983E-03    0.883E-04
DAV:  17    -0.238452315123E+02    0.47555E-07   -0.45514E-08  8284   0.201E-03    0.139E-04
DAV:  18    -0.238452314973E+02    0.14973E-07   -0.27941E-09  4180   0.516E-04    0.707E-05
DAV:  19    -0.238452314978E+02   -0.51932E-09   -0.54758E-10  4112   0.267E-04
   1 F= -.23845231E+02 E0= -.23845412E+02  d E =-.238452E+02  mag=     0.0000
       N       E                     dE             d eps       ncg     rms          rms(c)
DAV:   1    -0.142772900085E+03   -0.11893E+03   -0.17869E+03  7632   0.694E+02    0.804E+01
DAV:   2    -0.501411330086E+02    0.92632E+02   -0.67555E+02  8816   0.254E+02    0.448E+01
DAV:   3    -0.465060773928E+02    0.36351E+01   -0.27450E+02  8280   0.184E+02    0.389E+01
DAV:   4    -0.252081343941E+02    0.21298E+02   -0.71835E+01  8736   0.115E+02    0.364E+00
DAV:   5    -0.252761843870E+02   -0.68050E-01   -0.70082E+00  8228   0.318E+01    0.971E+00
DAV:   6    -0.243605045834E+02    0.91568E+00   -0.29181E+00  9924   0.202E+01    0.180E+00
DAV:   7    -0.243227827857E+02    0.37722E-01   -0.13409E-01  8516   0.325E+00    0.755E-01
DAV:   8    -0.243162467842E+02    0.65360E-02   -0.32363E-02 10176   0.187E+00    0.161E-01
DAV:   9    -0.243160808918E+02    0.16589E-03   -0.23378E-03  9324   0.510E-01    0.444E-02
DAV:  10    -0.243160860934E+02   -0.52016E-05   -0.15188E-04  8924   0.161E-01    0.173E-02
DAV:  11    -0.243160841797E+02    0.19136E-05   -0.23223E-05  8532   0.678E-02    0.683E-03
DAV:  12    -0.243160840977E+02    0.81999E-07   -0.20182E-06 10232   0.150E-02    0.213E-03
DAV:  13    -0.243160841435E+02   -0.45717E-07   -0.11355E-07  8296   0.283E-03    0.211E-03
DAV:  14    -0.243160840615E+02    0.81954E-07   -0.73883E-08  7648   0.303E-03    0.550E-04
DAV:  15    -0.243160840250E+02    0.36487E-07   -0.22972E-08  4612   0.163E-03    0.323E-04
DAV:  16    -0.243160840204E+02    0.46512E-08   -0.59514E-09  4200   0.101E-03
   2 F= -.24316084E+02 E0= -.24315922E+02  d E =-.470853E+00  mag=    -0.0000
       N       E                     dE             d eps       ncg     rms          rms(c)
DAV:   1    -0.734555266104E+02   -0.49139E+02   -0.45179E+02  8392   0.273E+02    0.759E+01
DAV:   2    -0.138700270779E+03   -0.65245E+02   -0.13425E+03  7944   0.444E+02    0.631E+01
DAV:   3    -0.395172777692E+02    0.99183E+02   -0.32896E+02  8288   0.189E+02    0.246E+01
DAV:   4    -0.370111526943E+02    0.25061E+01   -0.50507E+00  8152   0.209E+01    0.231E+01
DAV:   5    -0.297687202602E+02    0.72424E+01   -0.50390E+00  9160   0.317E+01    0.149E+01
DAV:   6    -0.296878947200E+02    0.80826E-01   -0.54856E+01 10472   0.813E+01    0.237E+01
DAV:   7    -0.257835242308E+02    0.39044E+01   -0.61201E+00 10040   0.254E+01    0.102E+01
DAV:   8    -0.249855594350E+02    0.79796E+00   -0.17670E+00 11280   0.136E+01    0.272E+00
DAV:   9    -0.249905052452E+02   -0.49458E-02   -0.47527E-02  8120   0.173E+00    0.268E+00
DAV:  10    -0.249361497129E+02    0.54356E-01   -0.30631E-01  8704   0.700E+00    0.681E-01
DAV:  11    -0.249324643330E+02    0.36854E-02   -0.39146E-02  9280   0.254E+00    0.396E-01
DAV:  12    -0.249313784604E+02    0.10859E-02   -0.78961E-03  8568   0.122E+00    0.127E-01
DAV:  13    -0.249312185789E+02    0.15988E-03   -0.47616E-04  9712   0.285E-01    0.191E-02
DAV:  14    -0.249312197990E+02   -0.12201E-05   -0.23469E-05  8408   0.337E-02    0.652E-03
DAV:  15    -0.249312202277E+02   -0.42868E-06   -0.17014E-06  8680   0.116E-02    0.890E-03
DAV:  16    -0.249312191599E+02    0.10678E-05   -0.22344E-06  8680   0.194E-02    0.665E-04
DAV:  17    -0.249312191040E+02    0.55855E-07   -0.78470E-08  8120   0.240E-03    0.954E-04
DAV:  18    -0.249312190505E+02    0.53535E-07   -0.14269E-08  4264   0.163E-03    0.268E-04
DAV:  19    -0.249312190428E+02    0.77553E-08   -0.30633E-09  4080   0.463E-04
   3 F= -.24931219E+02 E0= -.24931377E+02  d E =-.108599E+01  mag=    -0.0000
       N       E                     dE             d eps       ncg     rms          rms(c)
DAV:   1    -0.249408603295E+02   -0.96413E-02   -0.78954E-02  8072   0.419E+00    0.106E+00
DAV:   2    -0.249716898581E+02   -0.30830E-01   -0.27774E-01  8544   0.692E+00    0.194E+00
DAV:   3    -0.249313604879E+02    0.40329E-01   -0.13131E-01  8472   0.491E+00    0.103E-01
DAV:   4    -0.249314671189E+02   -0.10663E-03   -0.29776E-03  7888   0.324E-01    0.825E-02
DAV:   5    -0.249314091056E+02    0.58013E-04   -0.18527E-04  9680   0.171E-01    0.101E-02
DAV:   6    -0.249314081346E+02    0.97101E-06   -0.60272E-06  8096   0.199E-02    0.146E-03
DAV:   7    -0.249314079371E+02    0.19747E-06   -0.30994E-07  8720   0.649E-03    0.455E-04
DAV:   8    -0.249314078416E+02    0.95571E-07   -0.26255E-08  5800   0.203E-03    0.449E-04
DAV:   9    -0.249314077962E+02    0.45408E-07   -0.62135E-09  4332   0.114E-03    0.454E-05
DAV:  10    -0.249314077842E+02    0.12009E-07   -0.14057E-09  4096   0.381E-04    0.240E-05
DAV:  11    -0.249314077858E+02   -0.16844E-08   -0.38053E-10  3984   0.200E-04
   4 F= -.24931408E+02 E0= -.24931566E+02  d E =-.108618E+01  mag=    -0.0000
       N       E                     dE             d eps       ncg     rms          rms(c)
DAV:   1    -0.248447418528E+02    0.86666E-01   -0.97485E+00  8632   0.111E+02    0.478E+00
DAV:   2    -0.254678804656E+02   -0.62314E+00   -0.69200E+00  8496   0.320E+01    0.629E+00
DAV:   3    -0.250322198090E+02    0.43566E+00   -0.17135E+00  8472   0.187E+01    0.171E+00
DAV:   4    -0.249931287743E+02    0.39091E-01   -0.10990E-01  9536   0.365E+00    0.218E-01
DAV:   5    -0.249929748528E+02    0.15392E-03   -0.74420E-03  9216   0.833E-01    0.801E-02
DAV:   6    -0.249929612682E+02    0.13585E-04   -0.40012E-04  8864   0.272E-01    0.390E-02
DAV:   7    -0.249929673413E+02   -0.60731E-05   -0.44169E-05  9216   0.683E-02    0.988E-03
DAV:   8    -0.249929678632E+02   -0.52186E-06   -0.36613E-06  9008   0.220E-02    0.239E-03
DAV:   9    -0.249929676534E+02    0.20982E-06   -0.51831E-07  8712   0.101E-02    0.133E-03
DAV:  10    -0.249929676038E+02    0.49544E-07   -0.73401E-08  7320   0.370E-03    0.149E-04
DAV:  11    -0.249929675959E+02    0.79281E-08   -0.36960E-09  4296   0.730E-04
   5 F= -.24992968E+02 E0= -.24993056E+02  d E =-.615598E-01  mag=    -0.0000
       N       E                     dE             d eps       ncg     rms          rms(c)
DAV:   1    -0.248340072130E+02    0.15896E+00   -0.13058E+01  8656   0.128E+02    0.564E+00
DAV:   2    -0.256773498712E+02   -0.84334E+00   -0.94209E+00  8520   0.378E+01    0.739E+00
DAV:   3    -0.250697788828E+02    0.60757E+00   -0.24001E+00  8448   0.224E+01    0.198E+00
DAV:   4    -0.250183251995E+02    0.51454E-01   -0.14825E-01  9400   0.418E+00    0.249E-01
DAV:   5    -0.250181747728E+02    0.15043E-03   -0.98902E-03  9032   0.969E-01    0.947E-02
DAV:   6    -0.250181584466E+02    0.16326E-04   -0.52392E-04  9072   0.306E-01    0.461E-02
DAV:   7    -0.250181664471E+02   -0.80005E-05   -0.61902E-05  9240   0.848E-02    0.115E-02
DAV:   8    -0.250181667991E+02   -0.35202E-06   -0.54821E-06  9176   0.279E-02    0.295E-03
DAV:   9    -0.250181665075E+02    0.29165E-06   -0.84151E-07  8652   0.130E-02    0.172E-03
DAV:  10    -0.250181664372E+02    0.70317E-07   -0.13144E-07  8160   0.499E-03    0.237E-04
DAV:  11    -0.250181664321E+02    0.50177E-08   -0.58709E-09  4416   0.985E-04
   6 F= -.25018166E+02 E0= -.25018097E+02  d E =-.867586E-01  mag=    -0.0000
       N       E                     dE             d eps       ncg     rms          rms(c)
DAV:   1    -0.247691446051E+02    0.24902E+00   -0.11310E+01  9768   0.126E+02    0.363E+00
DAV:   2    -0.252975379298E+02   -0.52839E+00   -0.60143E+00  8316   0.275E+01    0.477E+00
DAV:   3    -0.250762218758E+02    0.22132E+00   -0.97853E-01  8448   0.136E+01    0.161E+00
DAV:   4    -0.250442464371E+02    0.31975E-01   -0.80308E-02  8528   0.393E+00    0.445E-01
DAV:   5    -0.250412755203E+02    0.29709E-02   -0.10505E-02  9488   0.101E+00    0.850E-02
DAV:   6    -0.250412586594E+02    0.16861E-04   -0.16816E-03  8336   0.544E-01    0.697E-02
DAV:   7    -0.250412263466E+02    0.32313E-04   -0.16877E-04  8688   0.182E-01    0.117E-02
DAV:   8    -0.250412287118E+02   -0.23652E-05   -0.73330E-06  8624   0.306E-02    0.235E-03
DAV:   9    -0.250412287345E+02   -0.22714E-07   -0.50926E-07 10216   0.771E-03    0.870E-04
DAV:  10    -0.250412287881E+02   -0.53525E-07   -0.44419E-08  8352   0.271E-03    0.175E-04
DAV:  11    -0.250412287894E+02   -0.13115E-08   -0.19026E-09  4288   0.602E-04
   7 F= -.25041229E+02 E0= -.25041255E+02  d E =-.230624E-01  mag=    -0.0000
       N       E                     dE             d eps       ncg     rms          rms(c)
DAV:   1    -0.250188506641E+02    0.22378E-01   -0.90226E-01  9296   0.366E+01    0.105E+00
DAV:   2    -0.250643036089E+02   -0.45453E-01   -0.49708E-01  8320   0.800E+00    0.138E+00
DAV:   3    -0.250452806903E+02    0.19023E-01   -0.82265E-02  8436   0.406E+00    0.444E-01
DAV:   4    -0.250427914217E+02    0.24893E-02   -0.61570E-03  8568   0.110E+00    0.121E-01
DAV:   5    -0.250425759762E+02    0.21545E-03   -0.83149E-04  9624   0.277E-01    0.218E-02
DAV:   6    -0.250425743143E+02    0.16619E-05   -0.11475E-04  8336   0.142E-01    0.172E-02
DAV:   7    -0.250425724561E+02    0.18583E-05   -0.10389E-05  8840   0.445E-02    0.314E-03
DAV:   8    -0.250425727122E+02   -0.25610E-06   -0.52864E-07  8664   0.784E-03    0.734E-04
DAV:   9    -0.250425727280E+02   -0.15802E-07   -0.38875E-08  7912   0.200E-03    0.233E-04
DAV:  10    -0.250425727467E+02   -0.18771E-07   -0.40279E-09  4248   0.884E-04    0.395E-05
DAV:  11    -0.250425727469E+02   -0.21464E-09   -0.72183E-10  4056   0.280E-04
   8 F= -.25042573E+02 E0= -.25042585E+02  d E =-.244063E-01  mag=     0.0000
       N       E                     dE             d eps       ncg     rms          rms(c)
DAV:   1    -0.249765971471E+02    0.65976E-01   -0.43491E+00  8824   0.831E+01    0.350E+00
DAV:   2    -0.253698838518E+02   -0.39329E+00   -0.37540E+00  8544   0.246E+01    0.525E+00
DAV:   3    -0.250571866994E+02    0.31270E+00   -0.11387E+00  8432   0.155E+01    0.911E-01
DAV:   4    -0.250498595244E+02    0.73272E-02   -0.34347E-02  8328   0.195E+00    0.337E-01
DAV:   5    -0.250484706953E+02    0.13888E-02   -0.44371E-03  9216   0.680E-01    0.571E-02
DAV:   6    -0.250484775818E+02   -0.68866E-05   -0.51482E-04  8344   0.277E-01    0.450E-02
DAV:   7    -0.250484662799E+02    0.11302E-04   -0.49262E-05 10520   0.911E-02    0.499E-03
DAV:   8    -0.250484659457E+02    0.33421E-06   -0.23238E-06  8376   0.140E-02    0.149E-03
DAV:   9    -0.250484657532E+02    0.19245E-06   -0.12340E-07  9352   0.379E-03    0.560E-04
DAV:  10    -0.250484657032E+02    0.50057E-07   -0.11259E-08  4488   0.131E-03    0.887E-05
DAV:  11    -0.250484656917E+02    0.11506E-07   -0.36473E-09  4216   0.749E-04    0.103E-04
DAV:  12    -0.250484656934E+02   -0.17735E-08   -0.11187E-09  4068   0.428E-04
   9 F= -.25048466E+02 E0= -.25048485E+02  d E =-.589295E-02  mag=    -0.0000
       N       E                     dE             d eps       ncg     rms          rms(c)
DAV:   1    -0.250478188749E+02    0.64682E-03   -0.42570E-02  8864   0.815E+00    0.337E-01
DAV:   2    -0.250514315380E+02   -0.36127E-02   -0.35773E-02  8504   0.236E+00    0.508E-01
DAV:   3    -0.250486097169E+02    0.28218E-02   -0.10453E-02  8424   0.147E+00    0.961E-02
DAV:   4    -0.250485261116E+02    0.83605E-04   -0.33172E-04  8536   0.210E-01    0.313E-02
DAV:   5    -0.250485125557E+02    0.13556E-04   -0.36628E-05  9128   0.589E-02    0.515E-03
DAV:   6    -0.250485124750E+02    0.80766E-07   -0.41673E-06  8280   0.248E-02    0.399E-03
DAV:   7    -0.250485123464E+02    0.12853E-06   -0.37721E-07 10744   0.778E-03    0.448E-04
DAV:   8    -0.250485123080E+02    0.38449E-07   -0.15709E-08  5536   0.114E-03    0.171E-04
DAV:   9    -0.250485122914E+02    0.16643E-07   -0.15374E-09  4144   0.419E-04    0.396E-05
DAV:  10    -0.250485122873E+02    0.40818E-08   -0.40028E-10  3976   0.192E-04
  10 F= -.25048512E+02 E0= -.25048527E+02  d E =-.593954E-02  mag=     0.0000
       N       E                     dE             d eps       ncg     rms          rms(c)
DAV:   1    -0.250384606412E+02    0.10052E-01   -0.26204E+00  8816   0.623E+01    0.304E+00
DAV:   2    -0.253191657745E+02   -0.28071E+00   -0.27270E+00  8544   0.210E+01    0.504E+00
DAV:   3    -0.250550786968E+02    0.26409E+00   -0.94731E-01  8424   0.136E+01    0.786E-01
DAV:   4    -0.250515299732E+02    0.35487E-02   -0.25961E-02  8104   0.174E+00    0.334E-01
DAV:   5    -0.250503711140E+02    0.11589E-02   -0.30980E-03  9936   0.676E-01    0.532E-02
DAV:   6    -0.250503514314E+02    0.19683E-04   -0.35185E-04  8464   0.228E-01    0.358E-02
DAV:   7    -0.250503440987E+02    0.73327E-05   -0.33031E-05  9912   0.793E-02    0.701E-03
DAV:   8    -0.250503447617E+02   -0.66298E-06   -0.18626E-06  8160   0.130E-02    0.138E-03
DAV:   9    -0.250503448338E+02   -0.72141E-07   -0.86600E-08  9520   0.334E-03    0.720E-04
DAV:  10    -0.250503448657E+02   -0.31891E-07   -0.17383E-08  4952   0.148E-03    0.671E-05
DAV:  11    -0.250503448705E+02   -0.47758E-08   -0.35587E-09  4192   0.601E-04
  11 F= -.25050345E+02 E0= -.25050201E+02  d E =-.183258E-02  mag=    -0.0000
       N       E                     dE             d eps       ncg     rms          rms(c)
DAV:   1    -0.250501995380E+02    0.14533E-03   -0.46670E-02  8944   0.844E+00    0.416E-01
DAV:   2    -0.250554278716E+02   -0.52283E-02   -0.48856E-02  8512   0.285E+00    0.675E-01
DAV:   3    -0.250504623882E+02    0.49655E-02   -0.17529E-02  8416   0.189E+00    0.963E-02
DAV:   4    -0.250504103932E+02    0.51995E-04   -0.43460E-04  8144   0.207E-01    0.443E-02
DAV:   5    -0.250503898726E+02    0.20521E-04   -0.58576E-05  9376   0.903E-02    0.772E-03
DAV:   6    -0.250503892427E+02    0.62995E-06   -0.76201E-06  8560   0.339E-02    0.540E-03
DAV:   7    -0.250503890141E+02    0.22860E-06   -0.83947E-07  9768   0.126E-02    0.916E-04
DAV:   8    -0.250503889525E+02    0.61522E-07   -0.40260E-08  8160   0.190E-03    0.126E-04
DAV:   9    -0.250503889400E+02    0.12529E-07   -0.14727E-09  4136   0.426E-04    0.123E-04
DAV:  10    -0.250503889326E+02    0.74006E-08   -0.62547E-10  4040   0.343E-04
  12 F= -.25050389E+02 E0= -.25050273E+02  d E =-.187665E-02  mag=     0.0000
       N       E                     dE             d eps       ncg     rms          rms(c)
DAV:   1    -0.250437921295E+02    0.65968E-02   -0.26455E-01 12616   0.210E+01    0.366E-01
DAV:   2    -0.250537235512E+02   -0.99314E-02   -0.10104E-01  8240   0.321E+00    0.531E-01
DAV:   3    -0.250509094199E+02    0.28141E-02   -0.11783E-02  8384   0.159E+00    0.121E-01
DAV:   4    -0.250507440172E+02    0.16540E-03   -0.48219E-04  9144   0.247E-01    0.449E-02
DAV:   5    -0.250507180144E+02    0.26003E-04   -0.77094E-05 10136   0.101E-01    0.787E-03
DAV:   6    -0.250507183126E+02   -0.29826E-06   -0.10960E-05  8400   0.409E-02    0.477E-03
DAV:   7    -0.250507182281E+02    0.84507E-07   -0.83569E-07  9128   0.122E-02    0.132E-03
DAV:   8    -0.250507181721E+02    0.56027E-07   -0.81092E-08  8384   0.374E-03    0.173E-04
DAV:   9    -0.250507181616E+02    0.10523E-07   -0.32361E-09  4208   0.863E-04    0.625E-05
DAV:  10    -0.250507181582E+02    0.34033E-08   -0.78600E-10  4048   0.342E-04
  13 F= -.25050718E+02 E0= -.25050573E+02  d E =-.329226E-03  mag=    -0.0000
       N       E                     dE             d eps       ncg     rms          rms(c)
DAV:   1    -0.250457012798E+02    0.50169E-02   -0.19475E-01 12600   0.180E+01    0.314E-01
DAV:   2    -0.250530201392E+02   -0.73189E-02   -0.74386E-02  8240   0.275E+00    0.457E-01
DAV:   3    -0.250509435687E+02    0.20766E-02   -0.86748E-03  8384   0.136E+00    0.104E-01
DAV:   4    -0.250508215462E+02    0.12202E-03   -0.35694E-04  9160   0.213E-01    0.385E-02
DAV:   5    -0.250508024544E+02    0.19092E-04   -0.56776E-05 10136   0.868E-02    0.678E-03
DAV:   6    -0.250508026692E+02   -0.21473E-06   -0.80494E-06  8400   0.350E-02    0.410E-03
DAV:   7    -0.250508026007E+02    0.68458E-07   -0.61582E-07  9088   0.104E-02    0.114E-03
DAV:   8    -0.250508025511E+02    0.49621E-07   -0.59124E-08  7896   0.320E-03    0.147E-04
DAV:   9    -0.250508025419E+02    0.91595E-08   -0.26020E-09  4144   0.765E-04
  14 F= -.25050803E+02 E0= -.25050622E+02  d E =-.413609E-03  mag=    -0.0000
       N       E                     dE             d eps       ncg     rms          rms(c)
DAV:   1    -0.250476016332E+02    0.32009E-02   -0.12302E-01  9336   0.140E+01    0.395E-01
DAV:   2    -0.250543286259E+02   -0.67270E-02   -0.69648E-02  8328   0.299E+00    0.552E-01
DAV:   3    -0.250511874299E+02    0.31412E-02   -0.12928E-02  8424   0.163E+00    0.154E-01
DAV:   4    -0.250509200673E+02    0.26736E-03   -0.72258E-04  9016   0.374E-01    0.460E-02
DAV:   5    -0.250508910156E+02    0.29052E-04   -0.10458E-04 10368   0.997E-02    0.777E-03
DAV:   6    -0.250508905792E+02    0.43642E-06   -0.14418E-05  8336   0.478E-02    0.573E-03
DAV:   7    -0.250508904441E+02    0.13506E-06   -0.94624E-07  9048   0.129E-02    0.115E-03
DAV:   8    -0.250508904969E+02   -0.52738E-07   -0.62176E-08  8344   0.251E-03    0.288E-04
DAV:   9    -0.250508905113E+02   -0.14459E-07   -0.38615E-09  4288   0.684E-04    0.778E-05
DAV:  10    -0.250508905214E+02   -0.10034E-07   -0.12191E-09  4112   0.479E-04    0.406E-05
DAV:  11    -0.250508905219E+02   -0.53114E-09   -0.24293E-10  4000   0.172E-04
  15 F= -.25050891E+02 E0= -.25050653E+02  d E =-.879800E-04  mag=    -0.0000
       N       E                     dE             d eps       ncg     rms          rms(c)
DAV:   1    -0.250508552876E+02    0.35234E-04   -0.13326E-03  9288   0.146E+00    0.413E-02
DAV:   2    -0.250509302598E+02   -0.74972E-04   -0.76167E-04  8336   0.313E-01    0.578E-02
DAV:   3    -0.250508951357E+02    0.35124E-04   -0.14174E-04  8416   0.172E-01    0.160E-02
DAV:   4    -0.250508921515E+02    0.29842E-05   -0.77809E-06  9000   0.385E-02    0.481E-03
DAV:   5    -0.250508917660E+02    0.38556E-06   -0.11354E-06 10320   0.104E-02    0.813E-04
DAV:   6    -0.250508917717E+02   -0.57335E-08   -0.15661E-07  8360   0.497E-03    0.589E-04
DAV:   7    -0.250508917665E+02    0.52069E-08   -0.85446E-09  4176   0.133E-03
  16 F= -.25050892E+02 E0= -.25050661E+02  d E =-.892246E-04  mag=    -0.0000
       N       E                     dE             d eps       ncg     rms          rms(c)
DAV:   1    -0.250514142656E+02   -0.52249E-03   -0.17657E-02  9040   0.395E+00    0.313E-01
DAV:   2    -0.250537230491E+02   -0.23088E-02   -0.22039E-02  8504   0.205E+00    0.506E-01
DAV:   3    -0.250509791576E+02    0.27439E-02   -0.92863E-03  8432   0.137E+00    0.753E-02
DAV:   4    -0.250509179427E+02    0.61215E-04   -0.31154E-04  8080   0.184E-01    0.796E-03
DAV:   5    -0.250509182570E+02   -0.31431E-06   -0.14367E-05  8840   0.402E-02    0.407E-03
DAV:   6    -0.250509180595E+02    0.19749E-06   -0.11794E-06  8728   0.142E-02    0.252E-03
DAV:   7    -0.250509179860E+02    0.73536E-07   -0.20212E-07  9040   0.537E-03    0.428E-04
DAV:   8    -0.250509179384E+02    0.47573E-07   -0.89952E-09  4304   0.998E-04    0.124E-04
DAV:   9    -0.250509179235E+02    0.14944E-07   -0.34725E-09  4048   0.774E-04    0.911E-05
DAV:  10    -0.250509179223E+02    0.11605E-08   -0.66928E-10  3984   0.334E-04
  17 F= -.25050918E+02 E0= -.25050643E+02  d E =-.261558E-04  mag=     0.0000
       N       E                     dE             d eps       ncg     rms          rms(c)
DAV:   1    -0.250509246697E+02   -0.67463E-05   -0.23532E-04  8832   0.457E-01    0.362E-02
DAV:   2    -0.250509566396E+02   -0.31970E-04   -0.29829E-04  8504   0.238E-01    0.588E-02
DAV:   3    -0.250509192427E+02    0.37397E-04   -0.12456E-04  8440   0.159E-01    0.872E-03
DAV:   4    -0.250509183402E+02    0.90253E-06   -0.41607E-06  8080   0.213E-02    0.958E-04
DAV:   5    -0.250509183236E+02    0.16559E-07   -0.19228E-07  8856   0.460E-03    0.474E-04
DAV:   6    -0.250509183143E+02    0.92896E-08   -0.14513E-08  4456   0.166E-03
  18 F= -.25050918E+02 E0= -.25050638E+02  d E =-.265478E-04  mag=    -0.0000
       N       E                     dE             d eps       ncg     rms          rms(c)
DAV:   1    -0.250509368012E+02   -0.18478E-04   -0.68338E-03  9760   0.237E+00    0.109E-01
DAV:   2    -0.250511009022E+02   -0.16410E-03   -0.26324E-03  8344   0.642E-01    0.115E-01
DAV:   3    -0.250509831493E+02    0.11775E-03   -0.51889E-04  8472   0.324E-01    0.505E-02
DAV:   4    -0.250509474758E+02    0.35674E-04   -0.97557E-05 10304   0.131E-01    0.678E-03
DAV:   5    -0.250509472965E+02    0.17933E-06   -0.74320E-06  8376   0.377E-02    0.236E-03
DAV:   6    -0.250509472578E+02    0.38728E-07   -0.38928E-07  9584   0.786E-03    0.113E-03
DAV:   7    -0.250509472593E+02   -0.15179E-08   -0.66835E-08  8320   0.311E-03
  19 F= -.25050947E+02 E0= -.25050611E+02  d E =-.289450E-04  mag=    -0.0000
       N       E                     dE             d eps       ncg     rms          rms(c)
DAV:   1    -0.250509708607E+02   -0.23603E-04   -0.61900E-02  9904   0.711E+00    0.328E-01
DAV:   2    -0.250524632938E+02   -0.14924E-02   -0.23574E-02  8360   0.192E+00    0.352E-01
DAV:   3    -0.250513542280E+02    0.11091E-02   -0.47716E-03  8472   0.981E-01    0.151E-01
DAV:   4    -0.250510374522E+02    0.31678E-03   -0.86585E-04 10280   0.389E-01    0.201E-02
DAV:   5    -0.250510358474E+02    0.16048E-05   -0.66125E-05  8328   0.113E-01    0.708E-03
DAV:   6    -0.250510356417E+02    0.20561E-06   -0.34926E-06  9576   0.235E-02    0.337E-03
DAV:   7    -0.250510356491E+02   -0.73460E-08   -0.59956E-07  9192   0.923E-03    0.914E-04
DAV:   8    -0.250510356661E+02   -0.17017E-07   -0.34406E-08  7984   0.245E-03    0.205E-04
DAV:   9    -0.250510356743E+02   -0.82428E-08   -0.27050E-09  4184   0.678E-04
  20 F= -.25051036E+02 E0= -.25050533E+02  d E =-.117360E-03  mag=    -0.0000
       N       E                     dE             d eps       ncg     rms          rms(c)
DAV:   1    -0.250510949676E+02   -0.59301E-04   -0.24783E-01  9928   0.142E+01    0.656E-01
DAV:   2    -0.250573150784E+02   -0.62201E-02   -0.95446E-02  8352   0.387E+00    0.724E-01
DAV:   3    -0.250526465216E+02    0.46686E-02   -0.19700E-02  8440   0.199E+00    0.300E-01
DAV:   4    -0.250514016482E+02    0.12449E-02   -0.33912E-03 10288   0.767E-01    0.400E-02
DAV:   5    -0.250513941845E+02    0.74638E-05   -0.25818E-04  8344   0.223E-01    0.143E-02
DAV:   6    -0.250513934166E+02    0.76788E-06   -0.13893E-05  9568   0.472E-02    0.677E-03
DAV:   7    -0.250513934611E+02   -0.44523E-07   -0.24759E-06  9168   0.186E-02    0.194E-03
DAV:   8    -0.250513934963E+02   -0.35189E-07   -0.14862E-07  9184   0.527E-03    0.432E-04
DAV:   9    -0.250513935119E+02   -0.15582E-07   -0.11466E-08  4512   0.143E-03    0.121E-04
DAV:  10    -0.250513935186E+02   -0.67503E-08   -0.22667E-09  4152   0.508E-04
  21 F= -.25051394E+02 E0= -.25050685E+02  d E =-.475204E-03  mag=     0.0000
       N       E                     dE             d eps       ncg     rms          rms(c)
DAV:   1    -0.250512054882E+02    0.18802E-03   -0.99104E-01  9840   0.285E+01    0.129E+00
DAV:   2    -0.250742715002E+02   -0.23066E-01   -0.37214E-01  8336   0.754E+00    0.137E+00
DAV:   3    -0.250579944059E+02    0.16277E-01   -0.72615E-02  8480   0.380E+00    0.601E-01
DAV:   4    -0.250530026210E+02    0.49918E-02   -0.13613E-02 10360   0.154E+00    0.833E-02
DAV:   5    -0.250529611125E+02    0.41509E-04   -0.10146E-03  8296   0.438E-01    0.289E-02
DAV:   6    -0.250529586130E+02    0.24994E-05   -0.55094E-05  9544   0.941E-02    0.135E-02
DAV:   7    -0.250529588599E+02   -0.24689E-06   -0.10466E-05  9328   0.386E-02    0.426E-03
DAV:   8    -0.250529588979E+02   -0.38011E-07   -0.67297E-07  9112   0.118E-02    0.959E-04
DAV:   9    -0.250529589166E+02   -0.18667E-07   -0.66870E-08  8232   0.321E-03    0.252E-04
DAV:  10    -0.250529589298E+02   -0.13166E-07   -0.29501E-09  4312   0.640E-04    0.888E-05
DAV:  11    -0.250529589330E+02   -0.32196E-08   -0.91356E-10  4128   0.389E-04
  22 F= -.25052959E+02 E0= -.25052478E+02  d E =-.204062E-02  mag=     0.0000
       N       E                     dE             d eps       ncg     rms          rms(c)
DAV:   1    -0.250460860024E+02    0.68729E-02   -0.39726E+00  9704   0.573E+01    0.255E+00
DAV:   2    -0.251331101031E+02   -0.87024E-01   -0.14509E+00  8360   0.148E+01    0.262E+00
DAV:   3    -0.250750178299E+02    0.58092E-01   -0.26562E-01  8520   0.722E+00    0.121E+00
DAV:   4    -0.250543878102E+02    0.20630E-01   -0.55910E-02 10496   0.303E+00    0.173E-01
DAV:   5    -0.250542218419E+02    0.16597E-03   -0.39959E-03  8272   0.833E-01    0.578E-02
DAV:   6    -0.250542162489E+02    0.55931E-05   -0.21522E-04  9592   0.192E-01    0.260E-02
DAV:   7    -0.250542162426E+02    0.63037E-08   -0.37475E-05  9376   0.754E-02    0.749E-03
DAV:   8    -0.250542166037E+02   -0.36110E-06   -0.22583E-06  9072   0.205E-02    0.172E-03
DAV:   9    -0.250542166147E+02   -0.11060E-07   -0.20896E-07  8808   0.605E-03    0.541E-04
DAV:  10    -0.250542166388E+02   -0.24049E-07   -0.12236E-08  4672   0.129E-03    0.140E-04
DAV:  11    -0.250542166458E+02   -0.70040E-08   -0.29191E-09  4232   0.724E-04
  23 F= -.25054217E+02 E0= -.25054358E+02  d E =-.329833E-02  mag=     0.0000
       N       E                     dE             d eps       ncg     rms          rms(c)
DAV:   1    -0.250535614712E+02    0.65517E-03   -0.27410E-01  9744   0.150E+01    0.681E-01
DAV:   2    -0.250596099639E+02   -0.60485E-02   -0.10282E-01  8296   0.394E+00    0.662E-01
DAV:   3    -0.250557015207E+02    0.39084E-02   -0.18075E-02  8480   0.192E+00    0.323E-01
DAV:   4    -0.250542300653E+02    0.14715E-02   -0.39791E-03 10328   0.810E-01    0.395E-02
DAV:   5    -0.250542269924E+02    0.30728E-05   -0.28590E-04  8248   0.230E-01    0.153E-02
DAV:   6    -0.250542269641E+02    0.28311E-07   -0.15112E-05  9792   0.505E-02    0.708E-03
DAV:   7    -0.250542269772E+02   -0.13102E-07   -0.26567E-06  9128   0.199E-02    0.190E-03
DAV:   8    -0.250542269913E+02   -0.14102E-07   -0.15556E-07  9160   0.483E-03    0.428E-04
DAV:   9    -0.250542269699E+02    0.21415E-07   -0.97296E-09  4488   0.127E-03    0.141E-04
DAV:  10    -0.250542269639E+02    0.60518E-08   -0.22269E-09  4200   0.486E-04
  24 F= -.25054227E+02 E0= -.25054181E+02  d E =-.330865E-02  mag=    -0.0000
       N       E                     dE             d eps       ncg     rms          rms(c)
DAV:   1    -0.250542154066E+02    0.11563E-04   -0.31278E-02  9824   0.506E+00    0.228E-01
DAV:   2    -0.250548830154E+02   -0.66761E-03   -0.11403E-02  8320   0.132E+00    0.226E-01
DAV:   3    -0.250544361240E+02    0.44689E-03   -0.20694E-03  8496   0.647E-01    0.108E-01
DAV:   4    -0.250542707697E+02    0.16535E-03   -0.44604E-04 10384   0.278E-01    0.139E-02
DAV:   5    -0.250542702671E+02    0.50262E-06   -0.33045E-05  8256   0.801E-02    0.510E-03
DAV:   6    -0.250542701840E+02    0.83134E-07   -0.16916E-06  9744   0.170E-02    0.235E-03
DAV:   7    -0.250542701795E+02    0.44092E-08   -0.29634E-07  9280   0.661E-03    0.631E-04
DAV:   8    -0.250542701890E+02   -0.95024E-08   -0.14963E-08  4840   0.169E-03
  25 F= -.25054270E+02 E0= -.25054300E+02  d E =-.335187E-02  mag=     0.0000
       N       E                     dE             d eps       ncg     rms          rms(c)
DAV:   1    -0.250553304154E+02   -0.10602E-02   -0.71023E-03  9544   0.192E+00    0.247E-01
DAV:   2    -0.250567633170E+02   -0.14329E-02   -0.13337E-02  8504   0.160E+00    0.420E-01
DAV:   3    -0.250548565348E+02    0.19068E-02   -0.62495E-03  8424   0.112E+00    0.447E-02
DAV:   4    -0.250548423873E+02    0.14148E-04   -0.17108E-04  7944   0.115E-01    0.895E-03
DAV:   5    -0.250548422934E+02    0.93858E-07   -0.70792E-06  8648   0.347E-02    0.265E-03
DAV:   6    -0.250548422078E+02    0.85629E-07   -0.35287E-07  8672   0.728E-03    0.142E-03
DAV:   7    -0.250548421729E+02    0.34865E-07   -0.48058E-08  7544   0.247E-03    0.256E-04
DAV:   8    -0.250548421425E+02    0.30388E-07   -0.45340E-09  4240   0.893E-04    0.722E-05
DAV:   9    -0.250548421326E+02    0.98989E-08   -0.17731E-09  4016   0.552E-04
  26 F= -.25054842E+02 E0= -.25054888E+02  d E =-.571944E-03  mag=     0.0000
       N       E                     dE             d eps       ncg     rms          rms(c)
DAV:   1    -0.250607992431E+02   -0.59571E-02   -0.63952E-02  9544   0.575E+00    0.745E-01
DAV:   2    -0.250736752062E+02   -0.12876E-01   -0.12055E-01  8504   0.482E+00    0.125E+00
DAV:   3    -0.250565070312E+02    0.17168E-01   -0.56230E-02  8424   0.337E+00    0.130E-01
DAV:   4    -0.250563899969E+02    0.11703E-03   -0.15505E-03  7944   0.325E-01    0.331E-02
DAV:   5    -0.250563848891E+02    0.51078E-05   -0.71968E-05  8744   0.112E-01    0.785E-03
DAV:   6    -0.250563843906E+02    0.49849E-06   -0.36572E-06  8384   0.239E-02    0.418E-03
DAV:   7    -0.250563842507E+02    0.13988E-06   -0.51762E-07 10536   0.842E-03    0.924E-04
DAV:   8    -0.250563841486E+02    0.10210E-06   -0.49456E-08  7848   0.278E-03    0.236E-04
DAV:   9    -0.250563841292E+02    0.19464E-07   -0.62068E-09  4184   0.118E-03    0.152E-04
DAV:  10    -0.250563841227E+02    0.64629E-08   -0.10575E-09  4096   0.446E-04
  27 F= -.25056384E+02 E0= -.25056476E+02  d E =-.211393E-02  mag=    -0.0000
       N       E                     dE             d eps       ncg     rms          rms(c)
DAV:   1    -0.250764319887E+02   -0.20048E-01   -0.25620E-01  9568   0.115E+01    0.150E+00
DAV:   2    -0.251277594560E+02   -0.51327E-01   -0.48476E-01  8464   0.969E+00    0.248E+00
DAV:   3    -0.250591116381E+02    0.68648E-01   -0.22449E-01  8416   0.677E+00    0.251E-01
DAV:   4    -0.250587022848E+02    0.40935E-03   -0.63441E-03  7984   0.614E-01    0.822E-02
DAV:   5    -0.250586583626E+02    0.43922E-04   -0.34239E-04  8984   0.245E-01    0.155E-02
DAV:   6    -0.250586568512E+02    0.15114E-05   -0.17012E-05  8344   0.519E-02    0.782E-03
DAV:   7    -0.250586565176E+02    0.33356E-06   -0.23995E-06 10424   0.191E-02    0.243E-03
DAV:   8    -0.250586562766E+02    0.24105E-06   -0.30078E-07  9416   0.717E-03    0.517E-04
DAV:   9    -0.250586562439E+02    0.32658E-07   -0.20233E-08  4848   0.213E-03    0.197E-04
DAV:  10    -0.250586562268E+02    0.17057E-07   -0.29408E-09  4248   0.654E-04    0.287E-05
DAV:  11    -0.250586562246E+02    0.21928E-08   -0.88953E-10  4088   0.311E-04
  28 F= -.25058656E+02 E0= -.25058827E+02  d E =-.438604E-02  mag=    -0.0000
       N       E                     dE             d eps       ncg     rms          rms(c)
DAV:   1    -0.251316831782E+02   -0.73027E-01   -0.10281E+00  9584   0.231E+01    0.303E+00
DAV:   2    -0.253374762846E+02   -0.20579E+00   -0.19508E+00  8480   0.195E+01    0.492E+00
DAV:   3    -0.250613459450E+02    0.27613E+00   -0.90186E-01  8416   0.137E+01    0.481E-01
DAV:   4    -0.250600516546E+02    0.12943E-02   -0.27166E-02  8032   0.117E+00    0.208E-01
DAV:   5    -0.250597126207E+02    0.33903E-03   -0.17460E-03  9240   0.547E-01    0.311E-02
DAV:   6    -0.250597084724E+02    0.41483E-05   -0.76754E-05  8360   0.106E-01    0.122E-02
DAV:   7    -0.250597080626E+02    0.40984E-06   -0.65702E-06 10680   0.307E-02    0.411E-03
DAV:   8    -0.250597076143E+02    0.44823E-06   -0.49138E-07  9904   0.840E-03    0.109E-03
DAV:   9    -0.250597074747E+02    0.13965E-06   -0.47573E-08  8896   0.218E-03    0.160E-04
DAV:  10    -0.250597074535E+02    0.21156E-07   -0.31677E-09  4512   0.757E-04    0.102E-04
DAV:  11    -0.250597074488E+02    0.46675E-08   -0.71601E-10  4156   0.351E-04
  29 F= -.25059707E+02 E0= -.25059920E+02  d E =-.543726E-02  mag=    -0.0000
       N       E                     dE             d eps       ncg     rms          rms(c)
DAV:   1    -0.250657992902E+02   -0.60918E-02   -0.86437E-02  9376   0.667E+00    0.850E-01
DAV:   2    -0.250816334557E+02   -0.15834E-01   -0.15676E-01  8472   0.553E+00    0.142E+00
DAV:   3    -0.250601198983E+02    0.21514E-01   -0.72215E-02  8392   0.380E+00    0.164E-01
DAV:   4    -0.250599004863E+02    0.21941E-03   -0.20264E-03  7992   0.450E-01    0.201E-02
DAV:   5    -0.250599023305E+02   -0.18442E-05   -0.78251E-05  8704   0.110E-01    0.911E-03
DAV:   6    -0.250599017969E+02    0.53354E-06   -0.36591E-06  9336   0.229E-02    0.518E-03
DAV:   7    -0.250599017858E+02    0.11139E-07   -0.62442E-07 10312   0.844E-03    0.839E-04
DAV:   8    -0.250599018874E+02   -0.10165E-06   -0.47197E-08  8336   0.262E-03    0.216E-04
DAV:   9    -0.250599019230E+02   -0.35597E-07   -0.50886E-09  4336   0.104E-03    0.134E-04
DAV:  10    -0.250599019291E+02   -0.60581E-08   -0.86703E-10  4120   0.405E-04
  30 F= -.25059902E+02 E0= -.25060117E+02  d E =-.563174E-02  mag=     0.0000
       N       E                     dE             d eps       ncg     rms          rms(c)
DAV:   1    -0.250654152468E+02   -0.55133E-02   -0.75894E-02  9152   0.581E+00    0.752E-01
DAV:   2    -0.250771601079E+02   -0.11745E-01   -0.12017E-01  8504   0.487E+00    0.123E+00
DAV:   3    -0.250609177682E+02    0.16242E-01   -0.54322E-02  8440   0.328E+00    0.156E-01
DAV:   4    -0.250606823778E+02    0.23539E-03   -0.16650E-03  8168   0.392E-01    0.237E-02
DAV:   5    -0.250606815507E+02    0.82713E-06   -0.86367E-05  8504   0.110E-01    0.904E-03
DAV:   6    -0.250606806477E+02    0.90298E-06   -0.46584E-06  8648   0.205E-02    0.457E-03
DAV:   7    -0.250606806697E+02   -0.21975E-07   -0.69905E-07 10192   0.850E-03    0.132E-03
DAV:   8    -0.250606807511E+02   -0.81398E-07   -0.85507E-08  8476   0.434E-03    0.266E-04
DAV:   9    -0.250606807709E+02   -0.19873E-07   -0.87548E-09  4332   0.148E-03    0.162E-04
DAV:  10    -0.250606807828E+02   -0.11916E-07   -0.94595E-10  4212   0.399E-04    0.377E-05
DAV:  11    -0.250606807845E+02   -0.16271E-08   -0.27846E-10  4048   0.134E-04
  31 F= -.25060681E+02 E0= -.25060901E+02  d E =-.778855E-03  mag=     0.0000
       N       E                     dE             d eps       ncg     rms          rms(c)
DAV:   1    -0.250843426301E+02   -0.23662E-01   -0.37308E-01  9176   0.129E+01    0.166E+00
DAV:   2    -0.251414586693E+02   -0.57116E-01   -0.58826E-01  8520   0.107E+01    0.275E+00
DAV:   3    -0.250624259185E+02    0.79033E-01   -0.26591E-01  8448   0.720E+00    0.354E-01
DAV:   4    -0.250612109476E+02    0.12150E-02   -0.81479E-03  8240   0.900E-01    0.414E-02
DAV:   5    -0.250612168800E+02   -0.59325E-05   -0.38347E-04  8472   0.218E-01    0.206E-02
DAV:   6    -0.250612124314E+02    0.44487E-05   -0.20853E-05  8824   0.439E-02    0.105E-02
DAV:   7    -0.250612122866E+02    0.14478E-06   -0.36563E-06 10336   0.196E-02    0.296E-03
DAV:   8    -0.250612124599E+02   -0.17329E-06   -0.43141E-07  8512   0.985E-03    0.555E-04
DAV:   9    -0.250612125016E+02   -0.41748E-07   -0.42055E-08  7792   0.316E-03    0.344E-04
DAV:  10    -0.250612125279E+02   -0.26229E-07   -0.25118E-09  4336   0.638E-04    0.910E-05
DAV:  11    -0.250612125316E+02   -0.37035E-08   -0.92908E-10  4168   0.251E-04
  32 F= -.25061213E+02 E0= -.25061416E+02  d E =-.131060E-02  mag=     0.0000
       N       E                     dE             d eps       ncg     rms          rms(c)
DAV:   1    -0.250619444141E+02   -0.73189E-03   -0.11305E-02  9592   0.224E+00    0.290E-01
DAV:   2    -0.250636926717E+02   -0.17483E-02   -0.17635E-02  8528   0.187E+00    0.471E-01
DAV:   3    -0.250612723210E+02    0.24204E-02   -0.80164E-03  8432   0.127E+00    0.584E-02
DAV:   4    -0.250612393045E+02    0.33017E-04   -0.25138E-04  8160   0.152E-01    0.115E-02
DAV:   5    -0.250612387303E+02    0.57414E-06   -0.15638E-05  8492   0.502E-02    0.339E-03
DAV:   6    -0.250612386311E+02    0.99240E-07   -0.80527E-07  8624   0.877E-03    0.181E-03
DAV:   7    -0.250612385984E+02    0.32708E-07   -0.11615E-07 10076   0.364E-03    0.542E-04
DAV:   8    -0.250612385671E+02    0.31236E-07   -0.14004E-08  4444   0.184E-03    0.123E-04
DAV:   9    -0.250612385590E+02    0.81027E-08   -0.28337E-09  4104   0.740E-04
  33 F= -.25061239E+02 E0= -.25061446E+02  d E =-.133663E-02  mag=    -0.0000
       N       E                     dE             d eps       ncg     rms          rms(c)
DAV:   1    -0.250615852720E+02   -0.34670E-03   -0.10771E-02  9412   0.203E+00    0.149E-01
DAV:   2    -0.250615951237E+02   -0.98516E-05   -0.25569E-03  8408   0.679E-01    0.115E-01
DAV:   3    -0.250614906365E+02    0.10449E-03   -0.62236E-04  8564   0.352E-01    0.769E-02
DAV:   4    -0.250614127510E+02    0.77885E-04   -0.19943E-04 10252   0.177E-01    0.610E-03
DAV:   5    -0.250614131278E+02   -0.37675E-06   -0.11582E-05  8200   0.407E-02    0.314E-03
DAV:   6    -0.250614130719E+02    0.55926E-07   -0.54957E-07 10252   0.945E-03    0.125E-03
DAV:   7    -0.250614130644E+02    0.74861E-08   -0.79225E-08  8688   0.316E-03
  34 F= -.25061413E+02 E0= -.25061620E+02  d E =-.174505E-03  mag=     0.0000
       N       E                     dE             d eps       ncg     rms          rms(c)
DAV:   1    -0.250625585686E+02   -0.11455E-02   -0.57909E-02  9424   0.471E+00    0.345E-01
DAV:   2    -0.250626157047E+02   -0.57136E-04   -0.13824E-02  8400   0.158E+00    0.269E-01
DAV:   3    -0.250620475453E+02    0.56816E-03   -0.33697E-03  8552   0.820E-01    0.178E-01
DAV:   4    -0.250616298955E+02    0.41765E-03   -0.10686E-03 10248   0.407E-01    0.141E-02
DAV:   5    -0.250616318770E+02   -0.19815E-05   -0.61433E-05  8176   0.932E-02    0.728E-03
DAV:   6    -0.250616316706E+02    0.20640E-06   -0.29381E-06 10220   0.223E-02    0.290E-03
DAV:   7    -0.250616316603E+02    0.10312E-07   -0.42689E-07  9156   0.739E-03    0.798E-04
DAV:   8    -0.250616316315E+02    0.28770E-07   -0.21892E-08  6204   0.194E-03    0.110E-04
DAV:   9    -0.250616316263E+02    0.51950E-08   -0.33242E-09  4268   0.743E-04
  35 F= -.25061632E+02 E0= -.25061817E+02  d E =-.393067E-03  mag=     0.0000
       N       E                     dE             d eps       ncg     rms          rms(c)
DAV:   1    -0.250617655306E+02   -0.13390E-03   -0.73209E-03  9432   0.167E+00    0.123E-01
DAV:   2    -0.250617754459E+02   -0.99153E-05   -0.17602E-03  8376   0.564E-01    0.964E-02
DAV:   3    -0.250617010005E+02    0.74445E-04   -0.42939E-04  8520   0.293E-01    0.629E-02
DAV:   4    -0.250616485480E+02    0.52453E-04   -0.13389E-04 10264   0.145E-01    0.505E-03
DAV:   5    -0.250616488140E+02   -0.26603E-06   -0.79259E-06  8208   0.340E-02    0.260E-03
DAV:   6    -0.250616487678E+02    0.46225E-07   -0.37385E-07 10200   0.794E-03    0.104E-03
DAV:   7    -0.250616487580E+02    0.97989E-08   -0.54097E-08  8272   0.262E-03
  36 F= -.25061649E+02 E0= -.25061823E+02  d E =-.410199E-03  mag=     0.0000
       N       E                     dE             d eps       ncg     rms          rms(c)
DAV:   1    -0.250617063159E+02   -0.57548E-04   -0.49757E-03  9336   0.186E+00    0.869E-02
DAV:   2    -0.250617622901E+02   -0.55974E-04   -0.15193E-03  8184   0.478E-01    0.521E-02
DAV:   3    -0.250617487574E+02    0.13533E-04   -0.18707E-04  9192   0.189E-01    0.538E-02
DAV:   4    -0.250617164041E+02    0.32353E-04   -0.10459E-04  8576   0.137E-01    0.420E-03
DAV:   5    -0.250617164580E+02   -0.53915E-07   -0.48082E-06  8128   0.263E-02    0.191E-03
DAV:   6    -0.250617164533E+02    0.47166E-08   -0.26922E-07 10044   0.743E-03    0.812E-04
DAV:   7    -0.250617164638E+02   -0.10516E-07   -0.37375E-08  7360   0.228E-03    0.250E-04
DAV:   8    -0.250617164617E+02    0.21164E-08   -0.27290E-09  4180   0.685E-04
  37 F= -.25061716E+02 E0= -.25061889E+02  d E =-.677037E-04  mag=    -0.0000
       N       E                     dE             d eps       ncg     rms          rms(c)
DAV:   1    -0.250617521067E+02   -0.35643E-04   -0.11169E-02  9344   0.278E+00    0.130E-01
DAV:   2    -0.250618775313E+02   -0.12542E-03   -0.34121E-03  8160   0.716E-01    0.782E-02
DAV:   3    -0.250618474567E+02    0.30075E-04   -0.42071E-04  9176   0.284E-01    0.805E-02
DAV:   4    -0.250617744583E+02    0.72998E-04   -0.23442E-04  8584   0.205E-01    0.627E-03
DAV:   5    -0.250617746458E+02   -0.18753E-06   -0.10862E-05  8144   0.395E-02    0.286E-03
DAV:   6    -0.250617746292E+02    0.16605E-07   -0.60637E-07 10048   0.112E-02    0.122E-03
DAV:   7    -0.250617746464E+02   -0.17194E-07   -0.86226E-08  8552   0.344E-03    0.373E-04
DAV:   8    -0.250617746420E+02    0.44201E-08   -0.43493E-09  4352   0.894E-04
  38 F= -.25061775E+02 E0= -.25061943E+02  d E =-.125884E-03  mag=     0.0000
       N       E                     dE             d eps       ncg     rms          rms(c)
DAV:   1    -0.250617365267E+02    0.38120E-04   -0.22485E-03  8760   0.181E+00    0.657E-02
DAV:   2    -0.250618772135E+02   -0.14069E-03   -0.15513E-03  8352   0.473E-01    0.882E-02
DAV:   3    -0.250617950827E+02    0.82131E-04   -0.32700E-04  8392   0.262E-01    0.242E-02
DAV:   4    -0.250617881286E+02    0.69541E-05   -0.19621E-05  8952   0.591E-02    0.548E-03
DAV:   5    -0.250617879236E+02    0.20495E-06   -0.20234E-06  9344   0.135E-02    0.118E-03
DAV:   6    -0.250617879110E+02    0.12625E-07   -0.25665E-07  8312   0.624E-03    0.851E-04
DAV:   7    -0.250617879156E+02   -0.46366E-08   -0.27674E-08  6064   0.222E-03
  39 F= -.25061788E+02 E0= -.25061957E+02  d E =-.132737E-04  mag=     0.0000
       N       E                     dE             d eps       ncg     rms          rms(c)
DAV:   1    -0.250617525519E+02    0.35359E-04   -0.17752E-03  8760   0.161E+00    0.583E-02
DAV:   2    -0.250618634106E+02   -0.11086E-03   -0.12241E-03  8352   0.420E-01    0.783E-02
DAV:   3    -0.250617987839E+02    0.64627E-04   -0.25776E-04  8376   0.233E-01    0.215E-02
DAV:   4    -0.250617933355E+02    0.54484E-05   -0.15457E-05  8960   0.524E-02    0.487E-03
DAV:   5    -0.250617931873E+02    0.14811E-06   -0.15967E-06  9336   0.120E-02    0.105E-03
DAV:   6    -0.250617931775E+02    0.98835E-08   -0.20312E-07  8344   0.555E-03    0.757E-04
DAV:   7    -0.250617931818E+02   -0.43283E-08   -0.20691E-08  4988   0.197E-03
  40 F= -.25061793E+02 E0= -.25061963E+02  d E =-.185398E-04  mag=     0.0000
       N       E                     dE             d eps       ncg     rms          rms(c)
DAV:   1    -0.250617665370E+02    0.26640E-04   -0.44670E-03  8816   0.266E+00    0.125E-01
DAV:   2    -0.250622234339E+02   -0.45690E-03   -0.44331E-03  8528   0.861E-01    0.193E-01
DAV:   3    -0.250618072089E+02    0.41622E-03   -0.15017E-03  8416   0.558E-01    0.288E-02
DAV:   4    -0.250618037350E+02    0.34739E-05   -0.36524E-05  8216   0.592E-02    0.156E-02
DAV:   5    -0.250618011716E+02    0.25634E-05   -0.73607E-06  9296   0.349E-02    0.291E-03
DAV:   6    -0.250618009807E+02    0.19092E-06   -0.61985E-07  9232   0.101E-02    0.968E-04
DAV:   7    -0.250618009528E+02    0.27897E-07   -0.34008E-08  8216   0.200E-03    0.159E-04
DAV:   8    -0.250618009413E+02    0.11509E-07   -0.20224E-09  4184   0.467E-04    0.502E-05
DAV:   9    -0.250618009344E+02    0.68985E-08   -0.38096E-10  4000   0.215E-04
  41 F= -.25061801E+02 E0= -.25061971E+02  d E =-.775262E-05  mag=     0.0000
