       N       E                     dE             d eps       ncg     rms          rms(c)
DAV:   1     0.352947769142E+03    0.35295E+03   -0.22676E+04  8120   0.150E+03
DAV:   2    -0.970983536514E+01   -0.36266E+03   -0.34967E+03  6812   0.452E+02
DAV:   3    -0.229815481646E+02   -0.13272E+02   -0.12938E+02  7824   0.103E+02
DAV:   4    -0.232338585131E+02   -0.25231E+00   -0.25128E+00  7588   0.137E+01
DAV:   5    -0.232416815527E+02   -0.78230E-02   -0.78226E-02  7604   0.257E+00    0.209E+01
DAV:   6    -0.330403680370E+02   -0.97987E+01   -0.77940E+01  8040   0.134E+02    0.302E+01
DAV:   7    -0.199018603120E+02    0.13139E+02   -0.29466E+01  8056   0.846E+01    0.551E+00
DAV:   8    -0.197551475535E+02    0.14671E+00   -0.25193E+00  9248   0.158E+01    0.253E+00
DAV:   9    -0.197048044802E+02    0.50343E-01   -0.27980E-01  8724   0.627E+00    0.569E-01
DAV:  10    -0.197029140309E+02    0.18904E-02   -0.10561E-02  8456   0.128E+00    0.203E-01
DAV:  11    -0.197028035042E+02    0.11053E-03   -0.12739E-03  8872   0.385E-01    0.141E-01
DAV:  12    -0.197026693071E+02    0.13420E-03   -0.26004E-04  8908   0.177E-01    0.525E-02
DAV:  13    -0.197026421776E+02    0.27130E-04   -0.12311E-04  9700   0.123E-01    0.215E-02
DAV:  14    -0.197026439699E+02   -0.17923E-05   -0.79574E-06  7676   0.215E-02    0.180E-02
DAV:  15    -0.197026405022E+02    0.34677E-05   -0.75152E-06  8976   0.295E-02    0.278E-03
DAV:  16    -0.197026404161E+02    0.86101E-07   -0.54695E-07  9076   0.640E-03    0.515E-04
DAV:  17    -0.197026403798E+02    0.36306E-07   -0.29326E-08  6480   0.135E-03    0.345E-04
DAV:  18    -0.197026403584E+02    0.21374E-07   -0.26998E-09  3736   0.538E-04    0.196E-04
DAV:  19    -0.197026403605E+02   -0.20309E-08   -0.72606E-10  3680   0.272E-04
   1 F= -.19702640E+02 E0= -.19702490E+02  d E =-.197026E+02  mag=    -0.0000
       N       E                     dE             d eps       ncg     rms          rms(c)
DAV:   1    -0.106950092065E+03   -0.87247E+02   -0.12167E+03  6904   0.607E+02    0.709E+01
DAV:   2    -0.481923541356E+02    0.58758E+02   -0.52000E+02  8232   0.241E+02    0.456E+01
DAV:   3    -0.353221954032E+02    0.12870E+02   -0.17545E+02  7320   0.166E+02    0.335E+01
DAV:   4    -0.211157639302E+02    0.14206E+02   -0.48559E+01  7720   0.987E+01    0.416E+00
DAV:   5    -0.213854598031E+02   -0.26970E+00   -0.73513E+00  7360   0.332E+01    0.104E+01
DAV:   6    -0.203498838278E+02    0.10356E+01   -0.29457E+00  8264   0.201E+01    0.967E-01
DAV:   7    -0.203315901018E+02    0.18294E-01   -0.13074E-01  7856   0.358E+00    0.331E-01
DAV:   8    -0.203306840888E+02    0.90601E-03   -0.64693E-03  8224   0.738E-01    0.137E-01
DAV:   9    -0.203306067948E+02    0.77294E-04   -0.52199E-04  7124   0.241E-01    0.113E-01
DAV:  10    -0.203305114331E+02    0.95362E-04   -0.47018E-04  8460   0.267E-01    0.155E-02
DAV:  11    -0.203305098625E+02    0.15706E-05   -0.25799E-05  7332   0.644E-02    0.232E-03
DAV:  12    -0.203305103983E+02   -0.53576E-06   -0.86461E-07  7692   0.854E-03    0.671E-04
DAV:  13    -0.203305103325E+02    0.65746E-07   -0.13516E-07  7408   0.272E-03    0.332E-04
DAV:  14    -0.203305103509E+02   -0.18348E-07   -0.12321E-08  4672   0.119E-03    0.272E-04
DAV:  15    -0.203305103533E+02   -0.24065E-08   -0.28124E-09  3752   0.625E-04
   2 F= -.20330510E+02 E0= -.20330486E+02  d E =-.627870E+00  mag=     0.0000
       N       E                     dE             d eps       ncg     rms          rms(c)
DAV:   1    -0.418812343612E+02   -0.21551E+02   -0.19208E+02  7304   0.215E+02    0.500E+01
DAV:   2    -0.759767929098E+02   -0.34096E+02   -0.39610E+02  7376   0.287E+02    0.475E+01
DAV:   3    -0.248259731566E+02    0.51151E+02   -0.13634E+02  7904   0.132E+02    0.148E+01
DAV:   4    -0.242599243556E+02    0.56605E+00   -0.14368E+00  7168   0.101E+01    0.136E+01
DAV:   5    -0.217720543786E+02    0.24879E+01   -0.13960E+00  8328   0.141E+01    0.831E+00
DAV:   6    -0.207479246525E+02    0.10241E+01   -0.52609E+00  8576   0.230E+01    0.424E+00
DAV:   7    -0.206015449631E+02    0.14638E+00   -0.65442E-01  8592   0.875E+00    0.847E-01
DAV:   8    -0.205836810950E+02    0.17864E-01   -0.40905E-02  8388   0.169E+00    0.399E-01
DAV:   9    -0.205828150485E+02    0.86605E-03   -0.22344E-03  7324   0.358E-01    0.219E-01
DAV:  10    -0.205830444015E+02   -0.22935E-03   -0.28559E-03  9576   0.576E-01    0.215E-01
DAV:  11    -0.205828312080E+02    0.21319E-03   -0.26898E-04  8052   0.176E-01    0.152E-01
DAV:  12    -0.205825651438E+02    0.26606E-03   -0.74274E-04  9480   0.276E-01    0.213E-02
DAV:  13    -0.205825647840E+02    0.35977E-06   -0.27994E-05  7196   0.411E-02    0.116E-02
DAV:  14    -0.205825639504E+02    0.83361E-06   -0.29059E-06 10068   0.168E-02    0.161E-03
DAV:  15    -0.205825641660E+02   -0.21557E-06   -0.34994E-07  9716   0.505E-03    0.166E-03
DAV:  16    -0.205825641450E+02    0.20935E-07   -0.27074E-08  5560   0.179E-03    0.873E-04
DAV:  17    -0.205825641011E+02    0.43920E-07   -0.14473E-08  3896   0.109E-03    0.112E-04
DAV:  18    -0.205825640969E+02    0.42392E-08   -0.28737E-09  3680   0.413E-04
   3 F= -.20582564E+02 E0= -.20582493E+02  d E =-.879924E+00  mag=    -0.0000
       N       E                     dE             d eps       ncg     rms          rms(c)
DAV:   1    -0.212439237314E+02   -0.66136E+00   -0.35441E+01  7600   0.219E+02    0.138E+01
DAV:   2    -0.260082630112E+02   -0.47643E+01   -0.39095E+01  7804   0.827E+01    0.190E+01
DAV:   3    -0.208075276555E+02    0.52007E+01   -0.13153E+01  7812   0.544E+01    0.196E+00
DAV:   4    -0.207727199265E+02    0.34808E-01   -0.43126E-01  7460   0.447E+00    0.153E+00
DAV:   5    -0.207549224894E+02    0.17797E-01   -0.10473E-01  7684   0.359E+00    0.601E-01
DAV:   6    -0.207513725960E+02    0.35499E-02   -0.19195E-02  8052   0.169E+00    0.207E-01
DAV:   7    -0.207511855298E+02    0.18707E-03   -0.20379E-03  8340   0.534E-01    0.793E-02
DAV:   8    -0.207511373948E+02    0.48135E-04   -0.10625E-04  8196   0.113E-01    0.415E-02
DAV:   9    -0.207511213049E+02    0.16090E-04   -0.67121E-05  9612   0.892E-02    0.504E-03
DAV:  10    -0.207511211069E+02    0.19793E-06   -0.37137E-06  7392   0.188E-02    0.851E-04
DAV:  11    -0.207511210074E+02    0.99515E-07   -0.10996E-07  7472   0.332E-03    0.336E-04
DAV:  12    -0.207511209732E+02    0.34228E-07   -0.60937E-09  4028   0.689E-04    0.166E-04
DAV:  13    -0.207511209502E+02    0.22936E-07   -0.15346E-09  3680   0.358E-04    0.119E-04
DAV:  14    -0.207511209490E+02    0.12142E-08   -0.48893E-10  3568   0.241E-04
   4 F= -.20751121E+02 E0= -.20750790E+02  d E =-.168557E+00  mag=     0.0000
       N       E                     dE             d eps       ncg     rms          rms(c)
DAV:   1    -0.209109444059E+02   -0.15982E+00   -0.97356E+00  7628   0.114E+02    0.757E+00
DAV:   2    -0.224595829999E+02   -0.15486E+01   -0.13105E+01  7856   0.450E+01    0.116E+01
DAV:   3    -0.207852936077E+02    0.16743E+01   -0.47812E+00  7776   0.307E+01    0.108E+00
DAV:   4    -0.207769336553E+02    0.83600E-02   -0.10071E-01  7276   0.215E+00    0.655E-01
DAV:   5    -0.207731590978E+02    0.37746E-02   -0.14426E-02  7932   0.131E+00    0.181E-01
DAV:   6    -0.207728901038E+02    0.26899E-03   -0.21505E-03  8404   0.574E-01    0.892E-02
DAV:   7    -0.207728525991E+02    0.37505E-04   -0.27694E-04  8000   0.200E-01    0.256E-02
DAV:   8    -0.207728458193E+02    0.67798E-05   -0.17513E-05  8092   0.450E-02    0.691E-03
DAV:   9    -0.207728450801E+02    0.73923E-06   -0.20852E-06  9584   0.144E-02    0.755E-04
DAV:  10    -0.207728449728E+02    0.10728E-06   -0.11085E-07  7236   0.333E-03    0.355E-04
DAV:  11    -0.207728449446E+02    0.28171E-07   -0.37050E-09  3836   0.728E-04    0.133E-04
DAV:  12    -0.207728449338E+02    0.10786E-07   -0.92867E-10  3632   0.322E-04    0.578E-05
DAV:  13    -0.207728449293E+02    0.45111E-08   -0.26207E-10  3520   0.154E-04
   5 F= -.20772845E+02 E0= -.20772211E+02  d E =-.190281E+00  mag=    -0.0000
       N       E                     dE             d eps       ncg     rms          rms(c)
DAV:   1    -0.203704557138E+02    0.40239E+00   -0.21784E+01  8648   0.183E+02    0.609E+00
DAV:   2    -0.218146374964E+02   -0.14442E+01   -0.15286E+01  7528   0.399E+01    0.979E+00
DAV:   3    -0.208580989172E+02    0.95654E+00   -0.32396E+00  7800   0.241E+01    0.232E+00
DAV:   4    -0.208167732434E+02    0.41326E-01   -0.12031E-01  7896   0.416E+00    0.965E-01
DAV:   5    -0.208057151637E+02    0.11058E-01   -0.23045E-02  8112   0.177E+00    0.148E-01
DAV:   6    -0.208055272320E+02    0.18793E-03   -0.28285E-03  7384   0.597E-01    0.904E-02
DAV:   7    -0.208054932575E+02    0.33974E-04   -0.20748E-04  8588   0.195E-01    0.221E-02
DAV:   8    -0.208054964154E+02   -0.31579E-05   -0.11447E-05  7228   0.320E-02    0.284E-03
DAV:   9    -0.208054963791E+02    0.36259E-07   -0.10424E-06  8180   0.135E-02    0.271E-03
DAV:  10    -0.208054963401E+02    0.39043E-07   -0.25543E-07  7840   0.576E-03    0.272E-04
DAV:  11    -0.208054963429E+02   -0.28458E-08   -0.63137E-09  3788   0.916E-04
   6 F= -.20805496E+02 E0= -.20804848E+02  d E =-.326514E-01  mag=    -0.0000
       N       E                     dE             d eps       ncg     rms          rms(c)
DAV:   1    -0.207116416106E+02    0.93855E-01   -0.49779E+00  8668   0.896E+01    0.306E+00
DAV:   2    -0.210837030010E+02   -0.37206E+00   -0.35991E+00  7540   0.197E+01    0.515E+00
DAV:   3    -0.208204132825E+02    0.26329E+00   -0.91778E-01  7720   0.125E+01    0.106E+00
DAV:   4    -0.208115506009E+02    0.88627E-02   -0.26238E-02  7616   0.190E+00    0.440E-01
DAV:   5    -0.208091433990E+02    0.24072E-02   -0.51735E-03  7800   0.805E-01    0.637E-02
DAV:   6    -0.208091030014E+02    0.40398E-04   -0.67482E-04  7552   0.285E-01    0.419E-02
DAV:   7    -0.208090961745E+02    0.68268E-05   -0.47371E-05  8268   0.896E-02    0.109E-02
DAV:   8    -0.208090972539E+02   -0.10793E-05   -0.23141E-06  7588   0.160E-02    0.129E-03
DAV:   9    -0.208090972887E+02   -0.34794E-07   -0.20089E-07  7856   0.616E-03    0.101E-03
DAV:  10    -0.208090972930E+02   -0.43337E-08   -0.35700E-08  6296   0.204E-03
   7 F= -.20809097E+02 E0= -.20808579E+02  d E =-.362524E-01  mag=     0.0000
       N       E                     dE             d eps       ncg     rms          rms(c)
DAV:   1    -0.210432149790E+02   -0.23412E+00   -0.27239E+00  7720   0.327E+01    0.538E+00
DAV:   2    -0.217270310967E+02   -0.68382E+00   -0.53768E+00  7536   0.318E+01    0.875E+00
DAV:   3    -0.208197239787E+02    0.90731E+00   -0.25286E+00  7688   0.218E+01    0.795E-01
DAV:   4    -0.208143191311E+02    0.54048E-02   -0.69851E-02  7600   0.194E+00    0.554E-01
DAV:   5    -0.208116185468E+02    0.27006E-02   -0.11578E-02  8464   0.124E+00    0.753E-02
DAV:   6    -0.208115593393E+02    0.59208E-04   -0.37132E-04  7536   0.201E-01    0.276E-02
DAV:   7    -0.208115578778E+02    0.14615E-05   -0.26915E-05  7720   0.632E-02    0.443E-03
DAV:   8    -0.208115573897E+02    0.48815E-06   -0.20057E-06  8384   0.155E-02    0.314E-03
DAV:   9    -0.208115570371E+02    0.35254E-06   -0.29262E-07  9268   0.628E-03    0.453E-04
DAV:  10    -0.208115570080E+02    0.29131E-07   -0.16628E-08  5040   0.113E-03    0.185E-04
DAV:  11    -0.208115570026E+02    0.53415E-08   -0.22383E-09  3652   0.460E-04
   8 F= -.20811557E+02 E0= -.20811040E+02  d E =-.245971E-02  mag=    -0.0000
       N       E                     dE             d eps       ncg     rms          rms(c)
DAV:   1    -0.208271445213E+02   -0.15588E-01   -0.17907E-01  7624   0.843E+00    0.137E+00
DAV:   2    -0.208763497197E+02   -0.49205E-01   -0.42254E-01  7568   0.810E+00    0.255E+00
DAV:   3    -0.208126001790E+02    0.63750E-01   -0.19325E-01  7688   0.562E+00    0.249E-01
DAV:   4    -0.208119262595E+02    0.67392E-03   -0.32007E-03  7168   0.530E-01    0.644E-02
DAV:   5    -0.208118939091E+02    0.32350E-04   -0.17613E-04  8472   0.125E-01    0.136E-02
DAV:   6    -0.208118934457E+02    0.46339E-06   -0.13910E-05  7232   0.527E-02    0.101E-02
DAV:   7    -0.208118931894E+02    0.25636E-06   -0.24442E-06  8384   0.191E-02    0.148E-03
DAV:   8    -0.208118932975E+02   -0.10819E-06   -0.11128E-07  7360   0.272E-03    0.635E-04
DAV:   9    -0.208118933399E+02   -0.42338E-07   -0.12384E-08  3984   0.121E-03    0.953E-05
DAV:  10    -0.208118933506E+02   -0.10678E-07   -0.27761E-09  3608   0.671E-04    0.500E-05
DAV:  11    -0.208118933492E+02    0.14052E-08   -0.43370E-10  3552   0.189E-04
   9 F= -.20811893E+02 E0= -.20811366E+02  d E =-.279606E-02  mag=     0.0000
       N       E                     dE             d eps       ncg     rms          rms(c)
DAV:   1    -0.208221171759E+02   -0.10224E-01   -0.18054E-01  8336   0.104E+01    0.116E+00
DAV:   2    -0.208564775125E+02   -0.34360E-01   -0.30197E-01  7736   0.685E+00    0.208E+00
DAV:   3    -0.208132901637E+02    0.43187E-01   -0.13299E-01  7712   0.472E+00    0.259E-01
DAV:   4    -0.208125149482E+02    0.77522E-03   -0.30145E-03  7176   0.552E-01    0.378E-02
DAV:   5    -0.208125121668E+02    0.27814E-05   -0.16039E-04  7784   0.126E-01    0.131E-02
DAV:   6    -0.208125118528E+02    0.31399E-06   -0.97533E-06  7680   0.448E-02    0.946E-03
DAV:   7    -0.208125118544E+02   -0.15780E-08   -0.17964E-06  8456   0.143E-02    0.112E-03
DAV:   8    -0.208125119058E+02   -0.51381E-07   -0.91526E-08  7928   0.381E-03    0.476E-04
DAV:   9    -0.208125119388E+02   -0.32983E-07   -0.53878E-09  3732   0.827E-04    0.790E-05
DAV:  10    -0.208125119461E+02   -0.73251E-08   -0.12257E-09  3672   0.389E-04
  10 F= -.20812512E+02 E0= -.20811969E+02  d E =-.618597E-03  mag=    -0.0000
       N       E                     dE             d eps       ncg     rms          rms(c)
DAV:   1    -0.208130258462E+02   -0.51391E-03   -0.92138E-03  8360   0.236E+00    0.265E-01
DAV:   2    -0.208148372505E+02   -0.18114E-02   -0.15315E-02  7744   0.156E+00    0.477E-01
DAV:   3    -0.208125699719E+02    0.22673E-02   -0.70751E-03  7720   0.108E+00    0.576E-02
DAV:   4    -0.208125320107E+02    0.37961E-04   -0.15031E-04  7176   0.123E-01    0.859E-03
DAV:   5    -0.208125320917E+02   -0.81042E-07   -0.81743E-06  7736   0.297E-02    0.293E-03
DAV:   6    -0.208125321910E+02   -0.99265E-07   -0.44838E-07  7608   0.949E-03    0.201E-03
DAV:   7    -0.208125322625E+02   -0.71562E-07   -0.76296E-08  6524   0.295E-03    0.240E-04
DAV:   8    -0.208125322799E+02   -0.17385E-07   -0.51252E-09  3692   0.104E-03    0.979E-05
DAV:   9    -0.208125322884E+02   -0.84619E-08   -0.10466E-09  3552   0.341E-04
  11 F= -.20812532E+02 E0= -.20811989E+02  d E =-.638939E-03  mag=    -0.0000
       N       E                     dE             d eps       ncg     rms          rms(c)
DAV:   1    -0.208124885638E+02    0.43716E-04   -0.17805E-01  8000   0.160E+01    0.872E-01
DAV:   2    -0.208363309315E+02   -0.23842E-01   -0.20371E-01  7728   0.532E+00    0.148E+00
DAV:   3    -0.208134067479E+02    0.22924E-01   -0.76790E-02  7704   0.355E+00    0.225E-01
DAV:   4    -0.208129239720E+02    0.48278E-03   -0.18999E-03  7416   0.493E-01    0.508E-02
DAV:   5    -0.208128950217E+02    0.28950E-04   -0.11932E-04  7488   0.103E-01    0.169E-02
DAV:   6    -0.208128919024E+02    0.31193E-05   -0.15443E-05  7592   0.440E-02    0.724E-03
DAV:   7    -0.208128914707E+02    0.43178E-06   -0.20738E-06  7824   0.158E-02    0.179E-03
DAV:   8    -0.208128913305E+02    0.14013E-06   -0.11293E-07  7792   0.325E-03    0.380E-04
DAV:   9    -0.208128913095E+02    0.21051E-07   -0.53375E-09  3788   0.123E-03    0.156E-04
DAV:  10    -0.208128913061E+02    0.33478E-08   -0.15908E-09  3576   0.462E-04
  12 F= -.20812891E+02 E0= -.20812366E+02  d E =-.359018E-03  mag=     0.0000
       N       E                     dE             d eps       ncg     rms          rms(c)
DAV:   1    -0.208127776226E+02    0.11369E-03   -0.10252E-01  8040   0.121E+01    0.659E-01
DAV:   2    -0.208263382936E+02   -0.13561E-01   -0.11563E-01  7728   0.402E+00    0.112E+00
DAV:   3    -0.208132822556E+02    0.13056E-01   -0.43483E-02  7704   0.268E+00    0.172E-01
DAV:   4    -0.208129999292E+02    0.28233E-03   -0.11046E-03  7440   0.379E-01    0.377E-02
DAV:   5    -0.208129834579E+02    0.16471E-04   -0.68681E-05  7496   0.780E-02    0.127E-02
DAV:   6    -0.208129815182E+02    0.19397E-05   -0.87597E-06  7552   0.331E-02    0.560E-03
DAV:   7    -0.208129812002E+02    0.31797E-06   -0.12422E-06  7904   0.122E-02    0.133E-03
DAV:   8    -0.208129810900E+02    0.11021E-06   -0.65919E-08  7488   0.255E-03    0.289E-04
DAV:   9    -0.208129810762E+02    0.13823E-07   -0.32641E-09  3708   0.953E-04    0.118E-04
DAV:  10    -0.208129810723E+02    0.38817E-08   -0.92092E-10  3584   0.348E-04
  13 F= -.20812981E+02 E0= -.20812498E+02  d E =-.448784E-03  mag=    -0.0000
       N       E                     dE             d eps       ncg     rms          rms(c)
DAV:   1    -0.208138483361E+02   -0.86726E-03   -0.10653E-01  7952   0.114E+01    0.693E-01
DAV:   2    -0.208274854527E+02   -0.13637E-01   -0.12177E-01  7592   0.433E+00    0.119E+00
DAV:   3    -0.208134730853E+02    0.14012E-01   -0.45467E-02  7724   0.277E+00    0.181E-01
DAV:   4    -0.208130795874E+02    0.39350E-03   -0.10949E-03  7400   0.376E-01    0.354E-02
DAV:   5    -0.208130687135E+02    0.10874E-04   -0.83007E-05  7908   0.752E-02    0.102E-02
DAV:   6    -0.208130685220E+02    0.19155E-06   -0.74884E-06  7392   0.387E-02    0.738E-03
DAV:   7    -0.208130684684E+02    0.53556E-07   -0.98692E-07  8600   0.114E-02    0.650E-04
DAV:   8    -0.208130685226E+02   -0.54152E-07   -0.57999E-08  7356   0.274E-03    0.342E-04
DAV:   9    -0.208130685426E+02   -0.20019E-07   -0.28740E-09  3708   0.581E-04    0.805E-05
DAV:  10    -0.208130685467E+02   -0.41337E-08   -0.75997E-10  3544   0.381E-04
  14 F= -.20813069E+02 E0= -.20812647E+02  d E =-.874744E-04  mag=     0.0000
       N       E                     dE             d eps       ncg     rms          rms(c)
DAV:   1    -0.208130858493E+02   -0.17307E-04   -0.20919E-03  7880   0.160E+00    0.971E-02
DAV:   2    -0.208133550808E+02   -0.26923E-03   -0.23180E-03  7600   0.607E-01    0.166E-01
DAV:   3    -0.208130796959E+02    0.27538E-03   -0.89658E-04  7704   0.388E-01    0.256E-02
DAV:   4    -0.208130715092E+02    0.81868E-05   -0.21692E-05  7420   0.544E-02    0.465E-03
DAV:   5    -0.208130711828E+02    0.32635E-06   -0.16288E-06  7828   0.107E-02    0.144E-03
DAV:   6    -0.208130711203E+02    0.62522E-07   -0.14029E-07  7368   0.527E-03    0.995E-04
DAV:   7    -0.208130710841E+02    0.36207E-07   -0.15752E-08  3940   0.156E-03    0.911E-05
DAV:   8    -0.208130710753E+02    0.88021E-08   -0.26532E-09  3516   0.641E-04
  15 F= -.20813071E+02 E0= -.20812640E+02  d E =-.900030E-04  mag=    -0.0000
       N       E                     dE             d eps       ncg     rms          rms(c)
DAV:   1    -0.208134953815E+02   -0.42430E-03   -0.12830E-02  7800   0.307E+00    0.275E-01
DAV:   2    -0.208153122903E+02   -0.18169E-02   -0.16015E-02  7624   0.160E+00    0.458E-01
DAV:   3    -0.208131541211E+02    0.21582E-02   -0.68812E-03  7688   0.107E+00    0.707E-02
DAV:   4    -0.208130984184E+02    0.55703E-04   -0.21475E-04  7416   0.162E-01    0.741E-03
DAV:   5    -0.208130975804E+02    0.83808E-06   -0.14875E-05  7200   0.459E-02    0.546E-03
DAV:   6    -0.208130972217E+02    0.35868E-06   -0.97403E-07  8800   0.839E-03    0.206E-03
DAV:   7    -0.208130970909E+02    0.13076E-06   -0.14304E-07  7544   0.387E-03    0.415E-04
DAV:   8    -0.208130970718E+02    0.19072E-07   -0.72159E-09  3736   0.110E-03    0.117E-04
DAV:   9    -0.208130970608E+02    0.11071E-07   -0.14750E-09  3496   0.517E-04    0.389E-05
DAV:  10    -0.208130970601E+02    0.70395E-09   -0.33160E-10  3480   0.202E-04
  16 F= -.20813097E+02 E0= -.20812700E+02  d E =-.259848E-04  mag=     0.0000
       N       E                     dE             d eps       ncg     rms          rms(c)
DAV:   1    -0.208130992108E+02   -0.21500E-05   -0.65283E-05  7856   0.218E-01    0.196E-02
DAV:   2    -0.208131087929E+02   -0.95821E-05   -0.80793E-05  7616   0.114E-01    0.326E-02
DAV:   3    -0.208130976084E+02    0.11185E-04   -0.34558E-05  7704   0.762E-02    0.504E-03
DAV:   4    -0.208130972766E+02    0.33178E-06   -0.10912E-06  7408   0.116E-02    0.526E-04
DAV:   5    -0.208130972629E+02    0.13652E-07   -0.75285E-08  7232   0.328E-03    0.391E-04
DAV:   6    -0.208130972478E+02    0.15115E-07   -0.38523E-09  3572   0.587E-04    0.141E-04
DAV:   7    -0.208130972381E+02    0.97634E-08   -0.13350E-09  3448   0.365E-04
  17 F= -.20813097E+02 E0= -.20812702E+02  d E =-.261628E-04  mag=     0.0000
       N       E                     dE             d eps       ncg     rms          rms(c)
DAV:   1    -0.208135070903E+02   -0.40984E-03   -0.52823E-03  7480   0.857E-01    0.206E-01
DAV:   2    -0.208145028045E+02   -0.99571E-03   -0.85314E-03  7760   0.117E+00    0.371E-01
DAV:   3    -0.208131270625E+02    0.13757E-02   -0.41206E-03  7704   0.826E-01    0.426E-02
DAV:   4    -0.208131039103E+02    0.23152E-04   -0.93219E-05  7216   0.901E-02    0.943E-03
DAV:   5    -0.208131035828E+02    0.32741E-06   -0.56257E-06  7544   0.288E-02    0.262E-03
DAV:   6    -0.208131036252E+02   -0.42388E-07   -0.22431E-07  9160   0.665E-03    0.101E-03
DAV:   7    -0.208131036821E+02   -0.56886E-07   -0.25573E-08  5352   0.142E-03    0.241E-04
DAV:   8    -0.208131036963E+02   -0.14223E-07   -0.39537E-09  3624   0.982E-04    0.632E-05
DAV:   9    -0.208131037009E+02   -0.45820E-08   -0.70036E-10  3532   0.328E-04
  18 F= -.20813104E+02 E0= -.20812721E+02  d E =-.646286E-05  mag=     0.0000
       N       E                     dE             d eps       ncg     rms          rms(c)
DAV:   1    -0.208131053869E+02   -0.16906E-05   -0.21935E-05  7468   0.552E-02    0.133E-02
DAV:   2    -0.208131098098E+02   -0.44228E-05   -0.35217E-05  7768   0.751E-02    0.239E-02
DAV:   3    -0.208131038684E+02    0.59414E-05   -0.17186E-05  7704   0.533E-02    0.275E-03
DAV:   4    -0.208131037681E+02    0.10032E-06   -0.38458E-07  7216   0.574E-03    0.601E-04
DAV:   5    -0.208131037645E+02    0.35325E-08   -0.22017E-08  4952   0.186E-03
  19 F= -.20813104E+02 E0= -.20812721E+02  d E =-.652647E-05  mag=     0.0000
