   8   8   0   0
  0.1303823E+02  0.2790765E-09  0.5386960E-09  0.6938118E-09  0.5000000E-15
  1.000000000000000E-004
  CAR 
 unknown system                          
     22.65102422    -58.53103296  301      9.01763473      1.00000000
    -58.531  0.0000E+00  0.0000E+00  0.0000E+00  0.0000E+00
    -58.260  0.0000E+00  0.0000E+00  0.0000E+00  0.0000E+00
    -57.990  0.0000E+00  0.0000E+00  0.0000E+00  0.0000E+00
    -57.719  0.0000E+00  0.0000E+00  0.0000E+00  0.0000E+00
    -57.449  0.0000E+00  0.0000E+00  0.0000E+00  0.0000E+00
    -57.178  0.0000E+00  0.0000E+00  0.0000E+00  0.0000E+00
    -56.907  0.0000E+00  0.0000E+00  0.0000E+00  0.0000E+00
    -56.637  0.0000E+00  0.0000E+00  0.0000E+00  0.0000E+00
    -56.366  0.0000E+00  0.0000E+00  0.0000E+00  0.0000E+00
    -56.096  0.0000E+00  0.0000E+00  0.0000E+00  0.0000E+00
    -55.825  0.0000E+00  0.0000E+00  0.0000E+00  0.0000E+00
    -55.554  0.0000E+00  0.0000E+00  0.0000E+00  0.0000E+00
    -55.284  0.0000E+00  0.0000E+00  0.0000E+00  0.0000E+00
    -55.013  0.0000E+00  0.0000E+00  0.0000E+00  0.0000E+00
    -54.743  0.0000E+00  0.0000E+00  0.3000E+01  0.3000E+01
    -54.472  0.2342E+02  0.2342E+02  0.8721E+01  0.8721E+01
    -54.201  0.0000E+00  0.0000E+00  0.9000E+01  0.9000E+01
    -53.931  0.0000E+00  0.0000E+00  0.9000E+01  0.9000E+01
    -53.660  0.0000E+00  0.0000E+00  0.9000E+01  0.9000E+01
    -53.390  0.0000E+00  0.0000E+00  0.9000E+01  0.9000E+01
    -53.119  0.0000E+00  0.0000E+00  0.9000E+01  0.9000E+01
    -52.848  0.0000E+00  0.0000E+00  0.9000E+01  0.9000E+01
    -52.578  0.0000E+00  0.0000E+00  0.9000E+01  0.9000E+01
    -52.307  0.0000E+00  0.0000E+00  0.9000E+01  0.9000E+01
    -52.036  0.0000E+00  0.0000E+00  0.9000E+01  0.9000E+01
    -51.766  0.0000E+00  0.0000E+00  0.9000E+01  0.9000E+01
    -51.495  0.0000E+00  0.0000E+00  0.9000E+01  0.9000E+01
    -51.225  0.0000E+00  0.0000E+00  0.9000E+01  0.9000E+01
    -50.954  0.0000E+00  0.0000E+00  0.9000E+01  0.9000E+01
    -50.683  0.0000E+00  0.0000E+00  0.9000E+01  0.9000E+01
    -50.413  0.0000E+00  0.0000E+00  0.9000E+01  0.9000E+01
    -50.142  0.0000E+00  0.0000E+00  0.9000E+01  0.9000E+01
    -49.872  0.0000E+00  0.0000E+00  0.9000E+01  0.9000E+01
    -49.601  0.0000E+00  0.0000E+00  0.9000E+01  0.9000E+01
    -49.330  0.0000E+00  0.0000E+00  0.9000E+01  0.9000E+01
    -49.060  0.0000E+00  0.0000E+00  0.9000E+01  0.9000E+01
    -48.789  0.0000E+00  0.0000E+00  0.9000E+01  0.9000E+01
    -48.519  0.0000E+00  0.0000E+00  0.9000E+01  0.9000E+01
    -48.248  0.0000E+00  0.0000E+00  0.9000E+01  0.9000E+01
    -47.977  0.0000E+00  0.0000E+00  0.9000E+01  0.9000E+01
    -47.707  0.0000E+00  0.0000E+00  0.9000E+01  0.9000E+01
    -47.436  0.0000E+00  0.0000E+00  0.9000E+01  0.9000E+01
    -47.166  0.0000E+00  0.0000E+00  0.9000E+01  0.9000E+01
    -46.895  0.0000E+00  0.0000E+00  0.9000E+01  0.9000E+01
    -46.624  0.0000E+00  0.0000E+00  0.9000E+01  0.9000E+01
    -46.354  0.0000E+00  0.0000E+00  0.9000E+01  0.9000E+01
    -46.083  0.0000E+00  0.0000E+00  0.9000E+01  0.9000E+01
    -45.813  0.0000E+00  0.0000E+00  0.9000E+01  0.9000E+01
    -45.542  0.0000E+00  0.0000E+00  0.9000E+01  0.9000E+01
    -45.271  0.0000E+00  0.0000E+00  0.9000E+01  0.9000E+01
    -45.001  0.0000E+00  0.0000E+00  0.9000E+01  0.9000E+01
    -44.730  0.0000E+00  0.0000E+00  0.9000E+01  0.9000E+01
    -44.459  0.0000E+00  0.0000E+00  0.9000E+01  0.9000E+01
    -44.189  0.0000E+00  0.0000E+00  0.9000E+01  0.9000E+01
    -43.918  0.0000E+00  0.0000E+00  0.9000E+01  0.9000E+01
    -43.648  0.0000E+00  0.0000E+00  0.9000E+01  0.9000E+01
    -43.377  0.0000E+00  0.0000E+00  0.9000E+01  0.9000E+01
    -43.106  0.0000E+00  0.0000E+00  0.9000E+01  0.9000E+01
    -42.836  0.0000E+00  0.0000E+00  0.9000E+01  0.9000E+01
    -42.565  0.0000E+00  0.0000E+00  0.9000E+01  0.9000E+01
    -42.295  0.0000E+00  0.0000E+00  0.9000E+01  0.9000E+01
    -42.024  0.0000E+00  0.0000E+00  0.9000E+01  0.9000E+01
    -41.753  0.0000E+00  0.0000E+00  0.9000E+01  0.9000E+01
    -41.483  0.0000E+00  0.0000E+00  0.9000E+01  0.9000E+01
    -41.212  0.0000E+00  0.0000E+00  0.9000E+01  0.9000E+01
    -40.942  0.0000E+00  0.0000E+00  0.9000E+01  0.9000E+01
    -40.671  0.0000E+00  0.0000E+00  0.9000E+01  0.9000E+01
    -40.400  0.0000E+00  0.0000E+00  0.9000E+01  0.9000E+01
    -40.130  0.0000E+00  0.0000E+00  0.9000E+01  0.9000E+01
    -39.859  0.0000E+00  0.0000E+00  0.9000E+01  0.9000E+01
    -39.589  0.0000E+00  0.0000E+00  0.9000E+01  0.9000E+01
    -39.318  0.0000E+00  0.0000E+00  0.9000E+01  0.9000E+01
    -39.047  0.0000E+00  0.0000E+00  0.9000E+01  0.9000E+01
    -38.777  0.0000E+00  0.0000E+00  0.9000E+01  0.9000E+01
    -38.506  0.0000E+00  0.0000E+00  0.9000E+01  0.9000E+01
    -38.236  0.0000E+00  0.0000E+00  0.9000E+01  0.9000E+01
    -37.965  0.0000E+00  0.0000E+00  0.9000E+01  0.9000E+01
    -37.694  0.0000E+00  0.0000E+00  0.9000E+01  0.9000E+01
    -37.424  0.0000E+00  0.0000E+00  0.9000E+01  0.9000E+01
    -37.153  0.0000E+00  0.0000E+00  0.9000E+01  0.9000E+01
    -36.882  0.0000E+00  0.0000E+00  0.9000E+01  0.9000E+01
    -36.612  0.0000E+00  0.0000E+00  0.9000E+01  0.9000E+01
    -36.341  0.0000E+00  0.0000E+00  0.9000E+01  0.9000E+01
    -36.071  0.0000E+00  0.0000E+00  0.9000E+01  0.9000E+01
    -35.800  0.0000E+00  0.0000E+00  0.9000E+01  0.9000E+01
    -35.529  0.0000E+00  0.0000E+00  0.9000E+01  0.9000E+01
    -35.259  0.0000E+00  0.0000E+00  0.9000E+01  0.9000E+01
    -34.988  0.0000E+00  0.0000E+00  0.9000E+01  0.9000E+01
    -34.718  0.0000E+00  0.0000E+00  0.9000E+01  0.9000E+01
    -34.447  0.0000E+00  0.0000E+00  0.9000E+01  0.9000E+01
    -34.176  0.0000E+00  0.0000E+00  0.9000E+01  0.9000E+01
    -33.906  0.0000E+00  0.0000E+00  0.9000E+01  0.9000E+01
    -33.635  0.0000E+00  0.0000E+00  0.9000E+01  0.9000E+01
    -33.365  0.0000E+00  0.0000E+00  0.9000E+01  0.9000E+01
    -33.094  0.0000E+00  0.0000E+00  0.9000E+01  0.9000E+01
    -32.823  0.0000E+00  0.0000E+00  0.9000E+01  0.9000E+01
    -32.553  0.0000E+00  0.0000E+00  0.9000E+01  0.9000E+01
    -32.282  0.0000E+00  0.0000E+00  0.9000E+01  0.9000E+01
    -32.012  0.0000E+00  0.0000E+00  0.9000E+01  0.9000E+01
    -31.741  0.0000E+00  0.0000E+00  0.9000E+01  0.9000E+01
    -31.470  0.0000E+00  0.0000E+00  0.9000E+01  0.9000E+01
    -31.200  0.0000E+00  0.0000E+00  0.9000E+01  0.9000E+01
    -30.929  0.0000E+00  0.0000E+00  0.9000E+01  0.9000E+01
    -30.659  0.0000E+00  0.0000E+00  0.9000E+01  0.9000E+01
    -30.388  0.0000E+00  0.0000E+00  0.9000E+01  0.9000E+01
    -30.117  0.0000E+00  0.0000E+00  0.9000E+01  0.9000E+01
    -29.847  0.0000E+00  0.0000E+00  0.9000E+01  0.9000E+01
    -29.576  0.0000E+00  0.0000E+00  0.9000E+01  0.9000E+01
    -29.305  0.0000E+00  0.0000E+00  0.9000E+01  0.9000E+01
    -29.035  0.0000E+00  0.0000E+00  0.9000E+01  0.9000E+01
    -28.764  0.0000E+00  0.0000E+00  0.9000E+01  0.9000E+01
    -28.494  0.0000E+00  0.0000E+00  0.9000E+01  0.9000E+01
    -28.223  0.0000E+00  0.0000E+00  0.9000E+01  0.9000E+01
    -27.952  0.0000E+00  0.0000E+00  0.9000E+01  0.9000E+01
    -27.682  0.0000E+00  0.0000E+00  0.9000E+01  0.9000E+01
    -27.411  0.0000E+00  0.0000E+00  0.9000E+01  0.9000E+01
    -27.141  0.0000E+00  0.0000E+00  0.9000E+01  0.9000E+01
    -26.870  0.0000E+00  0.0000E+00  0.9000E+01  0.9000E+01
    -26.599  0.0000E+00  0.0000E+00  0.9000E+01  0.9000E+01
    -26.329  0.0000E+00  0.0000E+00  0.9000E+01  0.9000E+01
    -26.058  0.0000E+00  0.0000E+00  0.9000E+01  0.9000E+01
    -25.788  0.0000E+00  0.0000E+00  0.9000E+01  0.9000E+01
    -25.517  0.0000E+00  0.0000E+00  0.9000E+01  0.9000E+01
    -25.246  0.0000E+00  0.0000E+00  0.9000E+01  0.9000E+01
    -24.976  0.0000E+00  0.0000E+00  0.9000E+01  0.9000E+01
    -24.705  0.0000E+00  0.0000E+00  0.9000E+01  0.9000E+01
    -24.435  0.0000E+00  0.0000E+00  0.9000E+01  0.9000E+01
    -24.164  0.0000E+00  0.0000E+00  0.9000E+01  0.9000E+01
    -23.893  0.0000E+00  0.0000E+00  0.9000E+01  0.9000E+01
    -23.623  0.0000E+00  0.0000E+00  0.9000E+01  0.9000E+01
    -23.352  0.0000E+00  0.0000E+00  0.9000E+01  0.9000E+01
    -23.082  0.0000E+00  0.0000E+00  0.9000E+01  0.9000E+01
    -22.811  0.0000E+00  0.0000E+00  0.9000E+01  0.9000E+01
    -22.540  0.0000E+00  0.0000E+00  0.9000E+01  0.9000E+01
    -22.270  0.0000E+00  0.0000E+00  0.9000E+01  0.9000E+01
    -21.999  0.0000E+00  0.0000E+00  0.9000E+01  0.9000E+01
    -21.729  0.0000E+00  0.0000E+00  0.9000E+01  0.9000E+01
    -21.458  0.0000E+00  0.0000E+00  0.9000E+01  0.9000E+01
    -21.187  0.0000E+00  0.0000E+00  0.9000E+01  0.9000E+01
    -20.917  0.0000E+00  0.0000E+00  0.9000E+01  0.9000E+01
    -20.646  0.0000E+00  0.0000E+00  0.9000E+01  0.9000E+01
    -20.375  0.0000E+00  0.0000E+00  0.9000E+01  0.9000E+01
    -20.105  0.0000E+00  0.0000E+00  0.9000E+01  0.9000E+01
    -19.834  0.0000E+00  0.0000E+00  0.9000E+01  0.9000E+01
    -19.564  0.0000E+00  0.0000E+00  0.9000E+01  0.9000E+01
    -19.293  0.0000E+00  0.0000E+00  0.9000E+01  0.9000E+01
    -19.022  0.0000E+00  0.0000E+00  0.9000E+01  0.9000E+01
    -18.752  0.0000E+00  0.0000E+00  0.9000E+01  0.9000E+01
    -18.481  0.0000E+00  0.0000E+00  0.9000E+01  0.9000E+01
    -18.211  0.0000E+00  0.0000E+00  0.9000E+01  0.9000E+01
    -17.940  0.0000E+00  0.0000E+00  0.9000E+01  0.9000E+01
    -17.669  0.0000E+00  0.0000E+00  0.9000E+01  0.9000E+01
    -17.399  0.0000E+00  0.0000E+00  0.9000E+01  0.9000E+01
    -17.128  0.0000E+00  0.0000E+00  0.9000E+01  0.9000E+01
    -16.858  0.0000E+00  0.0000E+00  0.9000E+01  0.9000E+01
    -16.587  0.0000E+00  0.0000E+00  0.9000E+01  0.9000E+01
    -16.316  0.0000E+00  0.0000E+00  0.9000E+01  0.9000E+01
    -16.046  0.0000E+00  0.0000E+00  0.9000E+01  0.9000E+01
    -15.775  0.0000E+00  0.0000E+00  0.9000E+01  0.9000E+01
    -15.505  0.0000E+00  0.0000E+00  0.9000E+01  0.9000E+01
    -15.234  0.0000E+00  0.0000E+00  0.9000E+01  0.9000E+01
    -14.963  0.0000E+00  0.0000E+00  0.9000E+01  0.9000E+01
    -14.693  0.0000E+00  0.0000E+00  0.9000E+01  0.9000E+01
    -14.422  0.0000E+00  0.0000E+00  0.9000E+01  0.9000E+01
    -14.152  0.0000E+00  0.0000E+00  0.9000E+01  0.9000E+01
    -13.881  0.0000E+00  0.0000E+00  0.9000E+01  0.9000E+01
    -13.610  0.0000E+00  0.0000E+00  0.9000E+01  0.9000E+01
    -13.340  0.0000E+00  0.0000E+00  0.9000E+01  0.9000E+01
    -13.069  0.0000E+00  0.0000E+00  0.9000E+01  0.9000E+01
    -12.798  0.0000E+00  0.0000E+00  0.9000E+01  0.9000E+01
    -12.528  0.0000E+00  0.0000E+00  0.9000E+01  0.9000E+01
    -12.257  0.0000E+00  0.0000E+00  0.9000E+01  0.9000E+01
    -11.987  0.0000E+00  0.0000E+00  0.9000E+01  0.9000E+01
    -11.716  0.0000E+00  0.0000E+00  0.9000E+01  0.9000E+01
    -11.445  0.0000E+00  0.0000E+00  0.9000E+01  0.9000E+01
    -11.175  0.0000E+00  0.0000E+00  0.9000E+01  0.9000E+01
    -10.904  0.0000E+00  0.0000E+00  0.9000E+01  0.9000E+01
    -10.634  0.0000E+00  0.0000E+00  0.9000E+01  0.9000E+01
    -10.363  0.0000E+00  0.0000E+00  0.9000E+01  0.9000E+01
    -10.092  0.0000E+00  0.0000E+00  0.9000E+01  0.9000E+01
     -9.822  0.0000E+00  0.0000E+00  0.9000E+01  0.9000E+01
     -9.551  0.0000E+00  0.0000E+00  0.9000E+01  0.9000E+01
     -9.281  0.0000E+00  0.0000E+00  0.9000E+01  0.9000E+01
     -9.010  0.0000E+00  0.0000E+00  0.9000E+01  0.9000E+01
     -8.739  0.0000E+00  0.0000E+00  0.9000E+01  0.9000E+01
     -8.469  0.0000E+00  0.0000E+00  0.9000E+01  0.9000E+01
     -8.198  0.0000E+00  0.0000E+00  0.9000E+01  0.9000E+01
     -7.928  0.0000E+00  0.0000E+00  0.9000E+01  0.9000E+01
     -7.657  0.0000E+00  0.0000E+00  0.9000E+01  0.9000E+01
     -7.386  0.0000E+00  0.0000E+00  0.9000E+01  0.9000E+01
     -7.116  0.0000E+00  0.0000E+00  0.9000E+01  0.9000E+01
     -6.845  0.0000E+00  0.0000E+00  0.9000E+01  0.9000E+01
     -6.575  0.0000E+00  0.0000E+00  0.9000E+01  0.9000E+01
     -6.304  0.0000E+00  0.0000E+00  0.9000E+01  0.9000E+01
     -6.033  0.0000E+00  0.0000E+00  0.9000E+01  0.9000E+01
     -5.763  0.0000E+00  0.0000E+00  0.9000E+01  0.9000E+01
     -5.492  0.0000E+00  0.0000E+00  0.9000E+01  0.9000E+01
     -5.221  0.0000E+00  0.0000E+00  0.9000E+01  0.9000E+01
     -4.951  0.0000E+00  0.0000E+00  0.9000E+01  0.9000E+01
     -4.680  0.0000E+00  0.0000E+00  0.9000E+01  0.9000E+01
     -4.410  0.0000E+00  0.0000E+00  0.9000E+01  0.9000E+01
     -4.139  0.0000E+00  0.0000E+00  0.9000E+01  0.9000E+01
     -3.868  0.0000E+00  0.0000E+00  0.9000E+01  0.9000E+01
     -3.598  0.0000E+00  0.0000E+00  0.9000E+01  0.9000E+01
     -3.327  0.0000E+00  0.0000E+00  0.9000E+01  0.9000E+01
     -3.057  0.0000E+00  0.0000E+00  0.9000E+01  0.9000E+01
     -2.786  0.0000E+00  0.0000E+00  0.9000E+01  0.9000E+01
     -2.515  0.0000E+00  0.0000E+00  0.9000E+01  0.9000E+01
     -2.245  0.5444E-02  0.5444E-02  0.9000E+01  0.9000E+01
     -1.974  0.1650E+00  0.1650E+00  0.9020E+01  0.9020E+01
     -1.704  0.3435E+00  0.3435E+00  0.9096E+01  0.9096E+01
     -1.433  0.3578E+00  0.3578E+00  0.9184E+01  0.9184E+01
     -1.162  0.4548E+00  0.4548E+00  0.9295E+01  0.9295E+01
     -0.892  0.3061E+00  0.3061E+00  0.9393E+01  0.9393E+01
     -0.621  0.4240E+00  0.4240E+00  0.9497E+01  0.9497E+01
     -0.351  0.5908E+00  0.5908E+00  0.9623E+01  0.9623E+01
     -0.080  0.5345E+00  0.5345E+00  0.9798E+01  0.9798E+01
      0.191  0.6126E+00  0.6126E+00  0.9950E+01  0.9950E+01
      0.461  0.6130E+00  0.6130E+00  0.1012E+02  0.1012E+02
      0.732  0.5839E+00  0.5839E+00  0.1028E+02  0.1028E+02
      1.002  0.7629E+00  0.7629E+00  0.1045E+02  0.1045E+02
      1.273  0.7846E+00  0.7846E+00  0.1067E+02  0.1067E+02
      1.544  0.8903E+00  0.8903E+00  0.1089E+02  0.1089E+02
      1.814  0.9345E+00  0.9345E+00  0.1114E+02  0.1114E+02
      2.085  0.9436E+00  0.9436E+00  0.1139E+02  0.1139E+02
      2.356  0.7737E+00  0.7737E+00  0.1163E+02  0.1163E+02
      2.626  0.9254E+00  0.9254E+00  0.1186E+02  0.1186E+02
      2.897  0.9779E+00  0.9779E+00  0.1211E+02  0.1211E+02
      3.167  0.1043E+01  0.1043E+01  0.1240E+02  0.1240E+02
      3.438  0.1387E+01  0.1387E+01  0.1274E+02  0.1274E+02
      3.709  0.1142E+01  0.1142E+01  0.1310E+02  0.1310E+02
      3.979  0.1192E+01  0.1192E+01  0.1344E+02  0.1344E+02
      4.250  0.1279E+01  0.1279E+01  0.1380E+02  0.1380E+02
      4.520  0.1726E+01  0.1726E+01  0.1421E+02  0.1421E+02
      4.791  0.1988E+01  0.1988E+01  0.1470E+02  0.1470E+02
      5.062  0.1570E+01  0.1570E+01  0.1519E+02  0.1519E+02
      5.332  0.2029E+01  0.2029E+01  0.1577E+02  0.1577E+02
      5.603  0.3605E+01  0.3605E+01  0.1659E+02  0.1659E+02
      5.873  0.6825E+01  0.6825E+01  0.1788E+02  0.1788E+02
      6.144  0.4206E+01  0.4206E+01  0.1915E+02  0.1915E+02
      6.415  0.3772E+01  0.3772E+01  0.2031E+02  0.2031E+02
      6.685  0.4938E+01  0.4938E+01  0.2209E+02  0.2209E+02
      6.956  0.5770E+01  0.5770E+01  0.2369E+02  0.2369E+02
      7.226  0.9347E+01  0.9347E+01  0.2587E+02  0.2587E+02
      7.497  0.6004E+01  0.6004E+01  0.2782E+02  0.2782E+02
      7.768  0.2437E+01  0.2437E+01  0.2908E+02  0.2908E+02
      8.038  0.1673E+01  0.1673E+01  0.2958E+02  0.2958E+02
      8.309  0.2429E+01  0.2429E+01  0.3017E+02  0.3017E+02
      8.579  0.1642E+01  0.1642E+01  0.3073E+02  0.3073E+02
      8.850  0.1902E+01  0.1902E+01  0.3123E+02  0.3123E+02
      9.121  0.1215E+01  0.1215E+01  0.3163E+02  0.3163E+02
      9.391  0.1116E+01  0.1116E+01  0.3195E+02  0.3195E+02
      9.662  0.1565E+01  0.1565E+01  0.3232E+02  0.3232E+02
      9.933  0.1619E+01  0.1619E+01  0.3278E+02  0.3278E+02
     10.203  0.1274E+01  0.1274E+01  0.3318E+02  0.3318E+02
     10.474  0.1982E+01  0.1982E+01  0.3363E+02  0.3363E+02
     10.744  0.1042E+01  0.1042E+01  0.3418E+02  0.3418E+02
     11.015  0.1427E+01  0.1427E+01  0.3450E+02  0.3450E+02
     11.286  0.1231E+01  0.1231E+01  0.3486E+02  0.3486E+02
     11.556  0.1061E+01  0.1061E+01  0.3517E+02  0.3517E+02
     11.827  0.9223E+00  0.9223E+00  0.3545E+02  0.3545E+02
     12.097  0.1921E+01  0.1921E+01  0.3590E+02  0.3590E+02
     12.368  0.1585E+01  0.1585E+01  0.3636E+02  0.3636E+02
     12.639  0.1343E+01  0.1343E+01  0.3676E+02  0.3676E+02
     12.909  0.1514E+01  0.1514E+01  0.3715E+02  0.3715E+02
     13.180  0.1855E+01  0.1855E+01  0.3759E+02  0.3759E+02
     13.450  0.1582E+01  0.1582E+01  0.3802E+02  0.3802E+02
     13.721  0.1657E+01  0.1657E+01  0.3847E+02  0.3847E+02
     13.992  0.1968E+01  0.1968E+01  0.3896E+02  0.3896E+02
     14.262  0.1582E+01  0.1582E+01  0.3941E+02  0.3941E+02
     14.533  0.1588E+01  0.1588E+01  0.3983E+02  0.3983E+02
     14.803  0.1626E+01  0.1626E+01  0.4026E+02  0.4026E+02
     15.074  0.1552E+01  0.1552E+01  0.4069E+02  0.4069E+02
     15.345  0.1829E+01  0.1829E+01  0.4113E+02  0.4113E+02
     15.615  0.1669E+01  0.1669E+01  0.4164E+02  0.4164E+02
     15.886  0.1434E+01  0.1434E+01  0.4207E+02  0.4207E+02
     16.156  0.1189E+01  0.1189E+01  0.4242E+02  0.4242E+02
     16.427  0.1062E+01  0.1062E+01  0.4272E+02  0.4272E+02
     16.698  0.8478E+00  0.8478E+00  0.4299E+02  0.4299E+02
     16.968  0.8367E+00  0.8367E+00  0.4323E+02  0.4323E+02
     17.239  0.6843E+00  0.6843E+00  0.4344E+02  0.4344E+02
     17.509  0.5296E+00  0.5296E+00  0.4360E+02  0.4360E+02
     17.780  0.4116E+00  0.4116E+00  0.4373E+02  0.4373E+02
     18.051  0.3612E+00  0.3612E+00  0.4383E+02  0.4383E+02
     18.321  0.3658E+00  0.3658E+00  0.4392E+02  0.4392E+02
     18.592  0.7352E-01  0.7352E-01  0.4400E+02  0.4400E+02
     18.863  0.2710E-02  0.2710E-02  0.4400E+02  0.4400E+02
     19.133  0.0000E+00  0.0000E+00  0.4400E+02  0.4400E+02
     19.404  0.0000E+00  0.0000E+00  0.4400E+02  0.4400E+02
     19.674  0.0000E+00  0.0000E+00  0.4400E+02  0.4400E+02
     19.945  0.0000E+00  0.0000E+00  0.4400E+02  0.4400E+02
     20.216  0.0000E+00  0.0000E+00  0.4400E+02  0.4400E+02
     20.486  0.0000E+00  0.0000E+00  0.4400E+02  0.4400E+02
     20.757  0.0000E+00  0.0000E+00  0.4400E+02  0.4400E+02
     21.027  0.0000E+00  0.0000E+00  0.4400E+02  0.4400E+02
     21.298  0.0000E+00  0.0000E+00  0.4400E+02  0.4400E+02
     21.569  0.0000E+00  0.0000E+00  0.4400E+02  0.4400E+02
     21.839  0.0000E+00  0.0000E+00  0.4400E+02  0.4400E+02
     22.110  0.0000E+00  0.0000E+00  0.4400E+02  0.4400E+02
     22.380  0.0000E+00  0.0000E+00  0.4400E+02  0.4400E+02
     22.651  0.0000E+00  0.0000E+00  0.4400E+02  0.4400E+02
