 running on   24 total cores
 distrk:  each k-point on   24 cores,    1 groups
 distr:  one band on    6 cores,    4 groups
 using from now: INCAR     
 vasp.5.4.4.18Apr17-6-g9f103f2a35 (build Jan 03 2018 06:08:52) complex          
  
 POSCAR found :  2 types and       8 ions
 scaLAPACK will be used
 WARNING: for PREC=h ENMAX is automatically increase by 25 %
        this was not the case for versions prior to vasp.4.4
 WARNING: for PREC=h ENMAX is automatically increase by 25 %
        this was not the case for versions prior to vasp.4.4
 LDA part: xc-table for Pade appr. of Perdew
 POSCAR, INCAR and KPOINTS ok, starting setup
 FFT: planning ...
 WAVECAR not read
 entering main loop
       N       E                     dE             d eps       ncg     rms          rms(c)
DAV:   1     0.627738445880E+03    0.62774E+03   -0.34925E+04  6576   0.146E+03
DAV:   2    -0.298143412160E+01   -0.63072E+03   -0.59754E+03  5460   0.462E+02
DAV:   3    -0.413151777354E+02   -0.38334E+02   -0.35710E+02  6236   0.129E+02
DAV:   4    -0.424637962780E+02   -0.11486E+01   -0.11402E+01  6132   0.214E+01
DAV:   5    -0.424946071501E+02   -0.30811E-01   -0.30799E-01  6216   0.385E+00    0.306E+01
DAV:   6    -0.650713083147E+02   -0.22577E+02   -0.17961E+02  6308   0.166E+02    0.411E+01
DAV:   7    -0.375224649799E+02    0.27549E+02   -0.65889E+01  6180   0.108E+02    0.982E+00
DAV:   8    -0.373176839660E+02    0.20478E+00   -0.10068E+01  7184   0.313E+01    0.640E+00
DAV:   9    -0.371031176969E+02    0.21457E+00   -0.10998E+00  7240   0.158E+01    0.367E+00
DAV:  10    -0.370391036393E+02    0.64014E-01   -0.51956E-01  6416   0.120E+01    0.184E+00
DAV:  11    -0.370245101382E+02    0.14594E-01   -0.88739E-02  7152   0.537E+00    0.158E+00
DAV:  12    -0.370033867214E+02    0.21123E-01   -0.38265E-02  6720   0.422E+00    0.560E-01
DAV:  13    -0.370008399535E+02    0.25468E-02   -0.12949E-02  6636   0.144E+00    0.165E-01
DAV:  14    -0.370009243103E+02   -0.84357E-04   -0.16292E-03  5928   0.326E-01    0.170E-01
DAV:  15    -0.370006789257E+02    0.24538E-03   -0.40219E-04  6780   0.260E-01    0.359E-02
DAV:  16    -0.370006778238E+02    0.11019E-05   -0.84754E-05  7084   0.844E-02    0.130E-02
DAV:  17    -0.370006771090E+02    0.71484E-06   -0.44428E-06  6368   0.226E-02    0.388E-03
DAV:  18    -0.370006769060E+02    0.20298E-06   -0.58408E-07  7092   0.764E-03    0.335E-03
DAV:  19    -0.370006767389E+02    0.16713E-06   -0.24024E-07  6288   0.598E-03    0.612E-04
DAV:  20    -0.370006767099E+02    0.28967E-07   -0.18259E-08  3792   0.120E-03    0.290E-04
DAV:  21    -0.370006766989E+02    0.10965E-07   -0.28140E-09  3108   0.559E-04    0.114E-04
DAV:  22    -0.370006766994E+02   -0.48021E-09   -0.83079E-10  3012   0.267E-04
   1 F= -.37000677E+02 E0= -.36999956E+02  d E =-.370007E+02  mag=    -0.0000
 curvature:   0.00 expect dE= 0.000E+00 dE for cont linesearch  0.000E+00
 trial: gam= 0.00000 g(F)=  0.494E+00 g(S)=  0.790E+01 ort = 0.000E+00 (trialstep = 0.100E+01)
 search vector abs. value=  0.839E+01
 bond charge predicted
       N       E                     dE             d eps       ncg     rms          rms(c)
DAV:   1    -0.244062413027E+03   -0.20706E+03   -0.30141E+03  5372   0.706E+02    0.105E+02
DAV:   2    -0.782546829083E+02    0.16581E+03   -0.11140E+03  6060   0.246E+02    0.566E+01
DAV:   3    -0.826783577530E+02   -0.44237E+01   -0.32847E+02  5932   0.193E+02    0.521E+01
DAV:   4    -0.427062509429E+02    0.39972E+02   -0.11021E+02  6060   0.938E+01    0.168E+01
DAV:   5    -0.391600410295E+02    0.35462E+01   -0.57216E+00  7172   0.211E+01    0.731E+00
DAV:   6    -0.387004905865E+02    0.45955E+00   -0.20794E+00  7556   0.261E+01    0.823E+00
DAV:   7    -0.380233778804E+02    0.67711E+00   -0.11518E+00  7092   0.175E+01    0.209E+00
DAV:   8    -0.380588131697E+02   -0.35435E-01   -0.42089E-01  7156   0.771E+00    0.334E+00
DAV:   9    -0.379756648032E+02    0.83148E-01   -0.20004E-01  6264   0.674E+00    0.660E-01
DAV:  10    -0.379745582718E+02    0.11065E-02   -0.23048E-02  6104   0.145E+00    0.380E-01
DAV:  11    -0.379738731762E+02    0.68510E-03   -0.26562E-03  6876   0.744E-01    0.838E-02
DAV:  12    -0.379739121237E+02   -0.38948E-04   -0.45240E-04  6352   0.203E-01    0.664E-02
DAV:  13    -0.379738918552E+02    0.20269E-04   -0.10790E-04  6116   0.158E-01    0.221E-02
DAV:  14    -0.379738908780E+02    0.97716E-06   -0.16953E-05  6468   0.543E-02    0.885E-03
DAV:  15    -0.379738905019E+02    0.37613E-06   -0.13192E-06  6996   0.175E-02    0.379E-03
DAV:  16    -0.379738901299E+02    0.37193E-06   -0.54566E-07  6704   0.725E-03    0.147E-03
DAV:  17    -0.379738901514E+02   -0.21475E-07   -0.50037E-08  5568   0.264E-03    0.512E-04
DAV:  18    -0.379738901662E+02   -0.14803E-07   -0.90829E-09  3040   0.971E-04    0.277E-04
DAV:  19    -0.379738901572E+02    0.90367E-08   -0.28506E-09  2876   0.582E-04
   2 F= -.37973890E+02 E0= -.37974071E+02  d E =-.973213E+00  mag=    -0.0000
 trial-energy change:   -0.973213  1 .order   -1.446065   -8.391021    5.498892
 step:   0.5536(harm=  0.6041)  dis= 0.03757  next Energy=   -39.243207 (dE=-0.224E+01)
 bond charge predicted
       N       E                     dE             d eps       ncg     rms          rms(c)
DAV:   1    -0.128635188576E+03   -0.90661E+02   -0.62539E+02  6012   0.256E+02    0.103E+02
DAV:   2    -0.255432724424E+03   -0.12680E+03   -0.15778E+03  6080   0.473E+02    0.840E+01
DAV:   3    -0.708016412857E+02    0.18463E+03   -0.65321E+02  5984   0.200E+02    0.348E+01
DAV:   4    -0.558118302090E+02    0.14990E+02   -0.23009E+01  5920   0.427E+01    0.270E+01
DAV:   5    -0.407000615996E+02    0.15112E+02   -0.19494E+01  6708   0.515E+01    0.827E+00
DAV:   6    -0.407854930571E+02   -0.85431E-01   -0.12238E+01  7248   0.380E+01    0.152E+01
DAV:   7    -0.417233742398E+02   -0.93788E+00   -0.32637E+00  7208   0.195E+01    0.180E+01
DAV:   8    -0.393508055800E+02    0.23726E+01   -0.23621E+00  6920   0.165E+01    0.549E+00
DAV:   9    -0.391322234930E+02    0.21858E+00   -0.86057E-01  7504   0.925E+00    0.204E+00
DAV:  10    -0.391419862520E+02   -0.97628E-02   -0.17711E-01  6888   0.635E+00    0.191E+00
DAV:  11    -0.391179377834E+02    0.24048E-01   -0.13170E-01  6896   0.446E+00    0.111E+00
DAV:  12    -0.391061932432E+02    0.11745E-01   -0.36927E-02  6572   0.270E+00    0.276E-01
DAV:  13    -0.391077602421E+02   -0.15670E-02   -0.79042E-03  6548   0.115E+00    0.454E-01
DAV:  14    -0.391060679453E+02    0.16923E-02   -0.12198E-03  7160   0.527E-01    0.207E-01
DAV:  15    -0.391056554624E+02    0.41248E-03   -0.12050E-03  7088   0.352E-01    0.152E-02
DAV:  16    -0.391056611198E+02   -0.56574E-05   -0.76522E-05  5648   0.627E-02    0.945E-03
DAV:  17    -0.391056607065E+02    0.41335E-06   -0.30920E-06  6924   0.155E-02    0.491E-03
DAV:  18    -0.391056610263E+02   -0.31980E-06   -0.17583E-06  6516   0.161E-02    0.664E-03
DAV:  19    -0.391056606495E+02    0.37677E-06   -0.31123E-07  6072   0.485E-03    0.438E-03
DAV:  20    -0.391056603076E+02    0.34194E-06   -0.39924E-07  7124   0.677E-03    0.319E-04
DAV:  21    -0.391056602897E+02    0.17866E-07   -0.30075E-08  4908   0.113E-03    0.297E-04
DAV:  22    -0.391056602907E+02   -0.10423E-08   -0.22785E-09  2948   0.578E-04
   3 F= -.39105660E+02 E0= -.39105661E+02  d E =-.210498E+01  mag=     0.0000
 curvature:  -0.30 expect dE=-0.618E-01 dE for cont linesearch -0.356E-03
 ZBRENT: interpolating
 opt :   0.5471  next Energy=   -39.105988 (dE=-0.211E+01)
 bond charge predicted
       N       E                     dE             d eps       ncg     rms          rms(c)
DAV:   1    -0.391243472567E+02   -0.18687E-01   -0.13018E-01  5708   0.416E+00    0.151E+00
DAV:   2    -0.391983713094E+02   -0.74024E-01   -0.44766E-01  6380   0.793E+00    0.295E+00
DAV:   3    -0.391058812608E+02    0.92490E-01   -0.21794E-01  6264   0.586E+00    0.202E-01
DAV:   4    -0.391065929858E+02   -0.71173E-03   -0.87170E-03  6596   0.964E-01    0.279E-01
DAV:   5    -0.391061376294E+02    0.45536E-03   -0.10952E-03  6740   0.617E-01    0.135E-01
DAV:   6    -0.391060634874E+02    0.74142E-04   -0.37457E-04  6720   0.321E-01    0.960E-02
DAV:   7    -0.391059960963E+02    0.67391E-04   -0.16576E-04  6612   0.239E-01    0.913E-03
DAV:   8    -0.391059962486E+02   -0.15223E-06   -0.18645E-05  5696   0.294E-02    0.395E-03
DAV:   9    -0.391059959040E+02    0.34460E-06   -0.12755E-06  6132   0.121E-02    0.188E-03
DAV:  10    -0.391059957896E+02    0.11439E-06   -0.19653E-07  6228   0.540E-03    0.769E-04
DAV:  11    -0.391059956871E+02    0.10244E-06   -0.91375E-09  3040   0.112E-03    0.339E-04
DAV:  12    -0.391059956570E+02    0.30181E-07   -0.30055E-09  2876   0.497E-04    0.119E-04
DAV:  13    -0.391059956554E+02    0.15516E-08   -0.73144E-10  2848   0.222E-04
   4 F= -.39105996E+02 E0= -.39105988E+02  d E =-.210532E+01  mag=    -0.0000
 curvature:  -0.27 expect dE=-0.554E-01 dE for cont linesearch -0.100E-04
 trial: gam= 0.02621 g(F)=  0.103E+00 g(S)=  0.991E-01 ort =-0.175E-01 (trialstep = 0.909E+00)
 search vector abs. value=  0.207E+00
 bond charge predicted
       N       E                     dE             d eps       ncg     rms          rms(c)
DAV:   1    -0.399341540894E+02   -0.82816E+00   -0.11729E+01  5964   0.265E+01    0.844E+00
DAV:   2    -0.413339103842E+02   -0.13998E+01   -0.97768E+00  6196   0.374E+01    0.132E+01
DAV:   3    -0.392777391687E+02    0.20562E+01   -0.48144E+00  6240   0.297E+01    0.194E+00
DAV:   4    -0.393294516555E+02   -0.51712E-01   -0.50847E-01  7244   0.934E+00    0.356E+00
DAV:   5    -0.392546759185E+02    0.74776E-01   -0.19925E-01  6548   0.809E+00    0.120E+00
DAV:   6    -0.392464417831E+02    0.82341E-02   -0.46384E-02  6460   0.271E+00    0.652E-01
DAV:   7    -0.392440474876E+02    0.23943E-02   -0.97073E-03  6524   0.171E+00    0.228E-01
DAV:   8    -0.392436325363E+02    0.41495E-03   -0.19230E-03  6384   0.457E-01    0.449E-02
DAV:   9    -0.392436575332E+02   -0.24997E-04   -0.14866E-04  7148   0.114E-01    0.342E-02
DAV:  10    -0.392436466589E+02    0.10874E-04   -0.34985E-05  6656   0.744E-02    0.603E-03
DAV:  11    -0.392436464412E+02    0.21770E-06   -0.25291E-06  5712   0.159E-02    0.174E-03
DAV:  12    -0.392436463109E+02    0.13025E-06   -0.20600E-07  6124   0.449E-03    0.516E-04
DAV:  13    -0.392436462796E+02    0.31352E-07   -0.11171E-08  3076   0.106E-03    0.289E-04
DAV:  14    -0.392436462641E+02    0.15471E-07   -0.24450E-09  2988   0.437E-04    0.206E-04
DAV:  15    -0.392436462523E+02    0.11800E-07   -0.12313E-09  2912   0.316E-04    0.430E-05
DAV:  16    -0.392436462531E+02   -0.75670E-09   -0.40375E-10  2860   0.139E-04
   5 F= -.39243646E+02 E0= -.39243257E+02  d E =-.137651E+00  mag=    -0.0000
 trial-energy change:   -0.137651  1 .order   -0.140019   -0.183610   -0.096429
 step:   1.9153(harm=  1.9153)  dis= 0.06992  next Energy=   -39.299343 (dE=-0.193E+00)
 bond charge predicted
       N       E                     dE             d eps       ncg     rms          rms(c)
DAV:   1    -0.401673549570E+02   -0.92371E+00   -0.14802E+01  5956   0.301E+01    0.957E+00
DAV:   2    -0.419266528894E+02   -0.17593E+01   -0.12317E+01  6272   0.427E+01    0.145E+01
DAV:   3    -0.393486520387E+02    0.25780E+01   -0.61085E+00  6136   0.337E+01    0.208E+00
DAV:   4    -0.394223673414E+02   -0.73715E-01   -0.67839E-01  7100   0.109E+01    0.384E+00
DAV:   5    -0.393299226378E+02    0.92445E-01   -0.19383E-01  6624   0.983E+00    0.147E+00
DAV:   6    -0.393136035114E+02    0.16319E-01   -0.73949E-02  6524   0.322E+00    0.294E-01
DAV:   7    -0.393139073558E+02   -0.30384E-03   -0.75181E-03  6628   0.118E+00    0.276E-01
DAV:   8    -0.393133268869E+02    0.58047E-03   -0.12741E-03  6860   0.598E-01    0.943E-02
DAV:   9    -0.393133072103E+02    0.19677E-04   -0.50721E-04  6644   0.210E-01    0.287E-02
DAV:  10    -0.393133028837E+02    0.43265E-05   -0.34266E-05  6816   0.648E-02    0.647E-03
DAV:  11    -0.393133025543E+02    0.32944E-06   -0.30450E-06  6112   0.168E-02    0.454E-03
DAV:  12    -0.393133021919E+02    0.36235E-06   -0.77558E-07  6136   0.101E-02    0.714E-04
DAV:  13    -0.393133021549E+02    0.37024E-07   -0.35571E-08  5100   0.155E-03    0.385E-04
DAV:  14    -0.393133021371E+02    0.17868E-07   -0.53414E-09  2940   0.876E-04    0.122E-04
DAV:  15    -0.393133021232E+02    0.13806E-07   -0.14729E-09  2916   0.318E-04    0.704E-05
DAV:  16    -0.393133021218E+02    0.14152E-08   -0.23001E-10  2864   0.137E-04
   6 F= -.39313302E+02 E0= -.39312678E+02  d E =-.207306E+00  mag=     0.0000
 curvature:  -0.98 expect dE=-0.408E-01 dE for cont linesearch -0.444E-02
 ZBRENT: extrapolating
 opt :   2.3236  next Energy=   -39.319551 (dE=-0.214E+00)
 bond charge predicted
       N       E                     dE             d eps       ncg     rms          rms(c)
DAV:   1    -0.394589589280E+02   -0.14566E+00   -0.24885E+00  6000   0.127E+01    0.363E+00
DAV:   2    -0.396728198078E+02   -0.21386E+00   -0.17346E+00  6240   0.162E+01    0.560E+00
DAV:   3    -0.393324800058E+02    0.34034E+00   -0.88471E-01  6256   0.123E+01    0.104E+00
DAV:   4    -0.393526525659E+02   -0.20173E-01   -0.11309E-01  7048   0.601E+00    0.203E+00
DAV:   5    -0.393219279331E+02    0.30725E-01   -0.51388E-02  6552   0.515E+00    0.294E-01
DAV:   6    -0.393220306223E+02   -0.10269E-03   -0.84660E-03  6600   0.870E-01    0.208E-01
DAV:   7    -0.393217597643E+02    0.27086E-03   -0.11405E-03  6128   0.590E-01    0.652E-02
DAV:   8    -0.393217516766E+02    0.80877E-05   -0.21799E-04  6720   0.161E-01    0.332E-02
DAV:   9    -0.393217470253E+02    0.46513E-05   -0.47292E-05  6368   0.852E-02    0.787E-03
DAV:  10    -0.393217465765E+02    0.44874E-06   -0.30170E-06  6096   0.184E-02    0.247E-03
DAV:  11    -0.393217463870E+02    0.18957E-06   -0.26778E-07  6976   0.371E-03    0.488E-04
DAV:  12    -0.393217463300E+02    0.56971E-07   -0.17791E-08  3908   0.116E-03    0.219E-04
DAV:  13    -0.393217462970E+02    0.32962E-07   -0.25776E-09  2840   0.379E-04    0.784E-05
DAV:  14    -0.393217462947E+02    0.23156E-08   -0.87147E-10  2800   0.233E-04
   7 F= -.39321746E+02 E0= -.39321324E+02  d E =-.215751E+00  mag=    -0.0000
 curvature:  -1.38 expect dE=-0.844E-01 dE for cont linesearch -0.495E-03
 trial: gam= 0.31081 g(F)=  0.125E-01 g(S)=  0.486E-01 ort = 0.862E-02 (trialstep = 0.119E+01)
 search vector abs. value=  0.864E-01
 bond charge predicted
       N       E                     dE             d eps       ncg     rms          rms(c)
DAV:   1    -0.408126293065E+02   -0.14909E+01   -0.16684E+01  6048   0.408E+01    0.120E+01
DAV:   2    -0.445429090026E+02   -0.37303E+01   -0.26068E+01  6472   0.616E+01    0.250E+01
DAV:   3    -0.396082803563E+02    0.49346E+01   -0.13561E+01  6528   0.431E+01    0.557E+00
DAV:   4    -0.394766957380E+02    0.13158E+00   -0.11670E+00  6944   0.178E+01    0.361E+00
DAV:   5    -0.393523786476E+02    0.12432E+00   -0.25862E-01  6712   0.692E+00    0.690E-01
DAV:   6    -0.393539472167E+02   -0.15686E-02   -0.45057E-02  7512   0.295E+00    0.819E-01
DAV:   7    -0.393489067355E+02    0.50405E-02   -0.15279E-02  6400   0.274E+00    0.150E-01
DAV:   8    -0.393487172484E+02    0.18949E-03   -0.25988E-03  5776   0.467E-01    0.133E-01
DAV:   9    -0.393485812609E+02    0.13599E-03   -0.32116E-04  7224   0.209E-01    0.226E-02
DAV:  10    -0.393485835523E+02   -0.22914E-05   -0.35383E-05  5688   0.557E-02    0.959E-03
DAV:  11    -0.393485837659E+02   -0.21360E-06   -0.38766E-06  7032   0.202E-02    0.186E-03
DAV:  12    -0.393485839477E+02   -0.18186E-06   -0.35670E-07  6040   0.720E-03    0.788E-04
DAV:  13    -0.393485839532E+02   -0.55206E-08   -0.23992E-08  4404   0.203E-03
   8 F= -.39348584E+02 E0= -.39349043E+02  d E =-.268377E-01  mag=     0.0000
 trial-energy change:   -0.026838  1 .order   -0.028034   -0.075994    0.019925
 step:   0.9292(harm=  0.9446)  dis= 0.01538  next Energy=   -39.350795 (dE=-0.290E-01)
 bond charge predicted
       N       E                     dE             d eps       ncg     rms          rms(c)
DAV:   1    -0.394238467485E+02   -0.75263E-01   -0.79109E-01  6096   0.872E+00    0.283E+00
DAV:   2    -0.396300495625E+02   -0.20620E+00   -0.13792E+00  6304   0.144E+01    0.505E+00
DAV:   3    -0.393541182437E+02    0.27593E+00   -0.66789E-01  6240   0.111E+01    0.759E-01
DAV:   4    -0.393563362738E+02   -0.22180E-02   -0.49206E-02  6920   0.337E+00    0.797E-01
DAV:   5    -0.393511082950E+02    0.52280E-02   -0.96839E-03  7104   0.178E+00    0.256E-01
DAV:   6    -0.393509055884E+02    0.20271E-03   -0.21635E-03  7160   0.719E-01    0.191E-01
DAV:   7    -0.393506300311E+02    0.27556E-03   -0.71776E-04  6456   0.441E-01    0.359E-02
DAV:   8    -0.393506297123E+02    0.31879E-06   -0.12224E-04  6292   0.873E-02    0.164E-02
DAV:   9    -0.393506269481E+02    0.27642E-05   -0.12664E-05  6016   0.411E-02    0.295E-03
DAV:  10    -0.393506267256E+02    0.22251E-06   -0.74952E-07  5984   0.890E-03    0.892E-04
DAV:  11    -0.393506266162E+02    0.10936E-06   -0.37499E-08  5132   0.220E-03    0.230E-04
DAV:  12    -0.393506265941E+02    0.22052E-07   -0.58511E-09  2884   0.696E-04    0.136E-04
DAV:  13    -0.393506265887E+02    0.54551E-08   -0.17356E-09  2804   0.413E-04
   9 F= -.39350627E+02 E0= -.39350851E+02  d E =-.288803E-01  mag=     0.0000
 curvature:  -0.64 expect dE=-0.419E-02 dE for cont linesearch -0.274E-05
 trial: gam= 0.16596 g(F)=  0.152E-03 g(S)=  0.642E-02 ort = 0.609E-03 (trialstep = 0.114E+01)
 search vector abs. value=  0.915E-02
 bond charge predicted
       N       E                     dE             d eps       ncg     rms          rms(c)
DAV:   1    -0.396037012405E+02   -0.25307E+00   -0.23775E+00  5976   0.159E+01    0.539E+00
DAV:   2    -0.403603441764E+02   -0.75664E+00   -0.50039E+00  6208   0.277E+01    0.931E+00
DAV:   3    -0.393547969924E+02    0.10055E+01   -0.24014E+00  6152   0.204E+01    0.884E-01
DAV:   4    -0.393707652298E+02   -0.15968E-01   -0.15087E-01  7288   0.496E+00    0.150E+00
DAV:   5    -0.393561868349E+02    0.14578E-01   -0.32354E-02  6752   0.365E+00    0.608E-01
DAV:   6    -0.393539772031E+02    0.22096E-02   -0.83647E-03  7200   0.133E+00    0.359E-01
DAV:   7    -0.393530227086E+02    0.95449E-03   -0.26603E-03  6448   0.872E-01    0.699E-02
DAV:   8    -0.393530407914E+02   -0.18083E-04   -0.52711E-04  6304   0.172E-01    0.383E-02
DAV:   9    -0.393530274484E+02    0.13343E-04   -0.57128E-05  6192   0.923E-02    0.652E-03
DAV:  10    -0.393530272578E+02    0.19069E-06   -0.39307E-06  5928   0.207E-02    0.151E-03
DAV:  11    -0.393530269812E+02    0.27658E-06   -0.15342E-07  5844   0.382E-03    0.572E-04
DAV:  12    -0.393530268988E+02    0.82357E-07   -0.28934E-08  4536   0.206E-03    0.477E-04
DAV:  13    -0.393530268604E+02    0.38463E-07   -0.73476E-09  2828   0.114E-03    0.916E-05
DAV:  14    -0.393530268561E+02    0.42201E-08   -0.15468E-09  2812   0.411E-04
  10 F= -.39353027E+02 E0= -.39353463E+02  d E =-.240027E-02  mag=     0.0000
 trial-energy change:   -0.002400  1 .order   -0.002398   -0.007599    0.002803
 step:   0.8326(harm=  0.8326)  dis= 0.00337  next Energy=   -39.353402 (dE=-0.278E-02)
 bond charge predicted
       N       E                     dE             d eps       ncg     rms          rms(c)
DAV:   1    -0.393713000098E+02   -0.18273E-01   -0.17404E-01  5920   0.433E+00    0.140E+00
DAV:   2    -0.394229428435E+02   -0.51643E-01   -0.34515E-01  6320   0.724E+00    0.262E+00
DAV:   3    -0.393543052271E+02    0.68638E-01   -0.17143E-01  6256   0.524E+00    0.379E-01
DAV:   4    -0.393544913722E+02   -0.18615E-03   -0.95656E-03  7176   0.148E+00    0.348E-01
DAV:   5    -0.393535036088E+02    0.98776E-03   -0.17577E-03  6824   0.744E-01    0.116E-01
DAV:   6    -0.393534422581E+02    0.61351E-04   -0.45349E-04  7160   0.384E-01    0.677E-02
DAV:   7    -0.393534100669E+02    0.32191E-04   -0.10376E-04  6444   0.165E-01    0.141E-02
DAV:   8    -0.393534097842E+02    0.28274E-06   -0.14763E-05  6012   0.289E-02    0.327E-03
DAV:   9    -0.393534100120E+02   -0.22780E-06   -0.10767E-06  5972   0.103E-02    0.158E-03
DAV:  10    -0.393534101651E+02   -0.15309E-06   -0.11815E-07  6224   0.403E-03    0.365E-04
DAV:  11    -0.393534102146E+02   -0.49544E-07   -0.87458E-09  3156   0.989E-04    0.131E-04
DAV:  12    -0.393534102402E+02   -0.25540E-07   -0.26165E-09  2828   0.426E-04    0.920E-05
DAV:  13    -0.393534102432E+02   -0.30668E-08   -0.65255E-10  2804   0.263E-04
  11 F= -.39353410E+02 E0= -.39353825E+02  d E =-.278365E-02  mag=     0.0000
 curvature:  -0.57 expect dE=-0.357E-03 dE for cont linesearch -0.778E-07
 trial: gam= 0.10832 g(F)=  0.185E-03 g(S)=  0.440E-03 ort =-0.353E-04 (trialstep = 0.108E+01)
 search vector abs. value=  0.725E-03
 bond charge predicted
       N       E                     dE             d eps       ncg     rms          rms(c)
DAV:   1    -0.393579838880E+02   -0.45736E-02   -0.92004E-02  5824   0.222E+00    0.559E-01
DAV:   2    -0.393600916666E+02   -0.21078E-02   -0.27928E-02  6292   0.217E+00    0.745E-01
DAV:   3    -0.393545196282E+02    0.55720E-02   -0.15441E-02  6228   0.178E+00    0.237E-01
DAV:   4    -0.393553353898E+02   -0.81576E-03   -0.48164E-03  6508   0.129E+00    0.428E-01
DAV:   5    -0.393538936570E+02    0.14417E-02   -0.23591E-03  6428   0.969E-01    0.644E-02
DAV:   6    -0.393538950441E+02   -0.13871E-05   -0.34508E-04  7140   0.209E-01    0.366E-02
DAV:   7    -0.393538858081E+02    0.92360E-05   -0.44563E-05  5940   0.842E-02    0.932E-03
DAV:   8    -0.393538860228E+02   -0.21476E-06   -0.82313E-06  6412   0.258E-02    0.543E-03
DAV:   9    -0.393538857047E+02    0.31814E-06   -0.10863E-06  6196   0.127E-02    0.109E-03
DAV:  10    -0.393538857033E+02    0.14279E-08   -0.13403E-07  5684   0.245E-03    0.567E-04
DAV:  11    -0.393538856900E+02    0.13270E-07   -0.14772E-08  3396   0.112E-03    0.138E-04
DAV:  12    -0.393538856843E+02    0.56407E-08   -0.29734E-09  2836   0.568E-04
  12 F= -.39353886E+02 E0= -.39354397E+02  d E =-.475441E-03  mag=    -0.0000
 trial-energy change:   -0.000475  1 .order   -0.000470   -0.000670   -0.000270
 step:   1.7182(harm=  1.8043)  dis= 0.00148  next Energy=   -39.353967 (dE=-0.557E-03)
 bond charge predicted
       N       E                     dE             d eps       ncg     rms          rms(c)
DAV:   1    -0.393554278593E+02   -0.15422E-02   -0.32486E-02  5820   0.132E+00    0.333E-01
DAV:   2    -0.393561848514E+02   -0.75699E-03   -0.10021E-02  6288   0.130E+00    0.446E-01
DAV:   3    -0.393541965811E+02    0.19883E-02   -0.55122E-03  6228   0.107E+00    0.142E-01
DAV:   4    -0.393544848497E+02   -0.28827E-03   -0.17320E-03  6488   0.776E-01    0.254E-01
DAV:   5    -0.393539719698E+02    0.51288E-03   -0.84375E-04  6484   0.581E-01    0.386E-02
DAV:   6    -0.393539721993E+02   -0.22951E-06   -0.12138E-04  7140   0.126E-01    0.221E-02
DAV:   7    -0.393539688107E+02    0.33885E-05   -0.15927E-05  5956   0.511E-02    0.554E-03
DAV:   8    -0.393539688154E+02   -0.46984E-08   -0.30622E-06  6412   0.157E-02    0.334E-03
DAV:   9    -0.393539686938E+02    0.12159E-06   -0.40696E-07  6196   0.777E-03    0.656E-04
DAV:  10    -0.393539686902E+02    0.36507E-08   -0.50870E-08  5192   0.151E-03
  13 F= -.39353969E+02 E0= -.39354493E+02  d E =-.558447E-03  mag=     0.0000
 curvature:  -1.04 expect dE=-0.116E-03 dE for cont linesearch -0.766E-07
 trial: gam= 0.14044 g(F)=  0.203E-04 g(S)=  0.912E-04 ort = 0.731E-05 (trialstep = 0.121E+01)
 search vector abs. value=  0.128E-03
 bond charge predicted
       N       E                     dE             d eps       ncg     rms          rms(c)
DAV:   1    -0.393587693629E+02   -0.48007E-02   -0.44037E-02  5852   0.224E+00    0.730E-01
DAV:   2    -0.393731586497E+02   -0.14389E-01   -0.96353E-02  6348   0.382E+00    0.137E+00
DAV:   3    -0.393544520004E+02    0.18707E-01   -0.47262E-02  6268   0.287E+00    0.271E-01
DAV:   4    -0.393541759454E+02    0.27606E-03   -0.32465E-03  6884   0.848E-01    0.132E-01
DAV:   5    -0.393540229036E+02    0.15304E-03   -0.33971E-04  6852   0.221E-01    0.500E-02
DAV:   6    -0.393540188760E+02    0.40276E-05   -0.95527E-05  7060   0.188E-01    0.436E-02
DAV:   7    -0.393540040261E+02    0.14850E-04   -0.33254E-05  6604   0.106E-01    0.627E-03
DAV:   8    -0.393540041061E+02   -0.80028E-07   -0.47877E-06  5564   0.138E-02    0.204E-03
DAV:   9    -0.393540041988E+02   -0.92681E-07   -0.31136E-07  6156   0.641E-03    0.756E-04
DAV:  10    -0.393540042474E+02   -0.48594E-07   -0.27347E-08  4472   0.217E-03    0.182E-04
DAV:  11    -0.393540042802E+02   -0.32742E-07   -0.22061E-09  2824   0.438E-04    0.522E-05
DAV:  12    -0.393540042847E+02   -0.45493E-08   -0.57729E-10  2796   0.230E-04
  14 F= -.39354004E+02 E0= -.39354532E+02  d E =-.355945E-04  mag=    -0.0000
 trial-energy change:   -0.000036  1 .order   -0.000036   -0.000136    0.000064
 step:   0.8177(harm=  0.8197)  dis= 0.00040  next Energy=   -39.354015 (dE=-0.459E-04)
 bond charge predicted
       N       E                     dE             d eps       ncg     rms          rms(c)
DAV:   1    -0.393545088610E+02   -0.50458E-03   -0.45656E-03  5856   0.722E-01    0.236E-01
DAV:   2    -0.393560214759E+02   -0.15126E-02   -0.10091E-02  6368   0.124E+00    0.438E-01
DAV:   3    -0.393540527670E+02    0.19687E-02   -0.48926E-03  6264   0.925E-01    0.805E-02
DAV:   4    -0.393540327854E+02    0.19982E-04   -0.32488E-04  6936   0.262E-01    0.425E-02
DAV:   5    -0.393540173442E+02    0.15441E-04   -0.33549E-05  7016   0.750E-02    0.172E-02
DAV:   6    -0.393540167314E+02    0.61284E-06   -0.10005E-05  7028   0.610E-02    0.143E-02
DAV:   7    -0.393540152010E+02    0.15304E-05   -0.36310E-06  6664   0.339E-02    0.201E-03
DAV:   8    -0.393540151645E+02    0.36423E-07   -0.51865E-07  5432   0.468E-03    0.708E-04
DAV:   9    -0.393540151284E+02    0.36149E-07   -0.37419E-08  5184   0.225E-03    0.233E-04
DAV:  10    -0.393540151136E+02    0.14792E-07   -0.27998E-09  2808   0.726E-04    0.653E-05
DAV:  11    -0.393540151041E+02    0.94824E-08   -0.39660E-10  2784   0.211E-04
  15 F= -.39354015E+02 E0= -.39354541E+02  d E =-.464139E-04  mag=    -0.0000
 curvature:  -0.47 expect dE=-0.131E-04 dE for cont linesearch -0.680E-08
 trial: gam= 0.25595 g(F)=  0.494E-05 g(S)=  0.233E-04 ort = 0.137E-05 (trialstep = 0.113E+01)
 search vector abs. value=  0.373E-04
 bond charge predicted
       N       E                     dE             d eps       ncg     rms          rms(c)
DAV:   1    -0.393544304648E+02   -0.41535E-03   -0.55332E-03  6176   0.667E-01    0.196E-01
DAV:   2    -0.393552138576E+02   -0.78339E-03   -0.57439E-03  6264   0.963E-01    0.330E-01
DAV:   3    -0.393540614933E+02    0.11524E-02   -0.28477E-03  6248   0.712E-01    0.515E-02
DAV:   4    -0.393541031480E+02   -0.41655E-04   -0.29887E-04  7088   0.296E-01    0.917E-02
DAV:   5    -0.393540363529E+02    0.66795E-04   -0.12110E-04  6528   0.224E-01    0.172E-02
DAV:   6    -0.393540364028E+02   -0.49904E-07   -0.19564E-05  7368   0.529E-02    0.118E-02
DAV:   7    -0.393540353451E+02    0.10577E-05   -0.30357E-06  6600   0.242E-02    0.261E-03
DAV:   8    -0.393540352632E+02    0.81891E-07   -0.57516E-07  6712   0.668E-03    0.140E-03
DAV:   9    -0.393540352248E+02    0.38399E-07   -0.77038E-08  5560   0.351E-03    0.272E-04
DAV:  10    -0.393540352052E+02    0.19676E-07   -0.63633E-09  2832   0.743E-04    0.994E-05
DAV:  11    -0.393540351980E+02    0.71414E-08   -0.10210E-09  2792   0.312E-04
  16 F= -.39354035E+02 E0= -.39354563E+02  d E =-.200939E-04  mag=    -0.0000
 trial-energy change:   -0.000020  1 .order   -0.000020   -0.000032   -0.000008
 step:   1.4816(harm=  1.4897)  dis= 0.00055  next Energy=   -39.354036 (dE=-0.213E-04)
 bond charge predicted
       N       E                     dE             d eps       ncg     rms          rms(c)
DAV:   1    -0.393540750645E+02   -0.39859E-04   -0.54189E-04  6176   0.209E-01    0.612E-02
DAV:   2    -0.393541525728E+02   -0.77508E-04   -0.56171E-04  6260   0.301E-01    0.103E-01
DAV:   3    -0.393540391719E+02    0.11340E-03   -0.27860E-04  6244   0.222E-01    0.162E-02
DAV:   4    -0.393540431860E+02   -0.40142E-05   -0.29228E-05  7088   0.928E-02    0.287E-02
DAV:   5    -0.393540366544E+02    0.65317E-05   -0.11848E-05  6528   0.704E-02    0.532E-03
DAV:   6    -0.393540366618E+02   -0.74142E-08   -0.19094E-06  7368   0.165E-02    0.368E-03
DAV:   7    -0.393540365639E+02    0.97933E-07   -0.29123E-07  6616   0.755E-03    0.818E-04
DAV:   8    -0.393540365358E+02    0.28092E-07   -0.55211E-08  5512   0.209E-03    0.434E-04
DAV:   9    -0.393540365246E+02    0.11176E-07   -0.63585E-09  2784   0.110E-03    0.830E-05
DAV:  10    -0.393540365188E+02    0.57935E-08   -0.17680E-09  2760   0.285E-04
  17 F= -.39354037E+02 E0= -.39354565E+02  d E =-.214147E-04  mag=     0.0000
 curvature:  -0.97 expect dE=-0.380E-05 dE for cont linesearch -0.435E-08
 trial: gam= 0.16125 g(F)=  0.240E-05 g(S)=  0.151E-05 ort = 0.409E-06 (trialstep = 0.120E+01)
 search vector abs. value=  0.501E-05
 reached required accuracy - stopping structural energy minimisation
 writing wavefunctions
