  12  12   0   0
  0.1353137E+02  0.4790714E-09  0.5895423E-09  0.6340501E-09  0.5000000E-15
  1.000000000000000E-004
  CAR 
 unknown system                          
     19.62575708    -58.61311602  301      8.68414265      1.00000000
    -58.613  0.0000E+00  0.0000E+00  0.0000E+00  0.0000E+00
    -58.352  0.0000E+00  0.0000E+00  0.0000E+00  0.0000E+00
    -58.092  0.0000E+00  0.0000E+00  0.0000E+00  0.0000E+00
    -57.831  0.0000E+00  0.0000E+00  0.0000E+00  0.0000E+00
    -57.570  0.0000E+00  0.0000E+00  0.0000E+00  0.0000E+00
    -57.309  0.0000E+00  0.0000E+00  0.0000E+00  0.0000E+00
    -57.048  0.0000E+00  0.0000E+00  0.0000E+00  0.0000E+00
    -56.788  0.0000E+00  0.0000E+00  0.0000E+00  0.0000E+00
    -56.527  0.0000E+00  0.0000E+00  0.0000E+00  0.0000E+00
    -56.266  0.0000E+00  0.0000E+00  0.0000E+00  0.0000E+00
    -56.005  0.0000E+00  0.0000E+00  0.0000E+00  0.0000E+00
    -55.744  0.0000E+00  0.0000E+00  0.0000E+00  0.0000E+00
    -55.484  0.0000E+00  0.0000E+00  0.0000E+00  0.0000E+00
    -55.223  0.0000E+00  0.0000E+00  0.0000E+00  0.0000E+00
    -54.962  0.0000E+00  0.0000E+00  0.6000E+01  0.6000E+01
    -54.701  0.0000E+00  0.0000E+00  0.1200E+02  0.1200E+02
    -54.440  0.0000E+00  0.0000E+00  0.1200E+02  0.1200E+02
    -54.180  0.0000E+00  0.0000E+00  0.1200E+02  0.1200E+02
    -53.919  0.0000E+00  0.0000E+00  0.1200E+02  0.1200E+02
    -53.658  0.0000E+00  0.0000E+00  0.1200E+02  0.1200E+02
    -53.397  0.0000E+00  0.0000E+00  0.1200E+02  0.1200E+02
    -53.136  0.0000E+00  0.0000E+00  0.1200E+02  0.1200E+02
    -52.876  0.0000E+00  0.0000E+00  0.1200E+02  0.1200E+02
    -52.615  0.0000E+00  0.0000E+00  0.1200E+02  0.1200E+02
    -52.354  0.0000E+00  0.0000E+00  0.1200E+02  0.1200E+02
    -52.093  0.0000E+00  0.0000E+00  0.1200E+02  0.1200E+02
    -51.832  0.0000E+00  0.0000E+00  0.1200E+02  0.1200E+02
    -51.572  0.0000E+00  0.0000E+00  0.1200E+02  0.1200E+02
    -51.311  0.0000E+00  0.0000E+00  0.1200E+02  0.1200E+02
    -51.050  0.0000E+00  0.0000E+00  0.1200E+02  0.1200E+02
    -50.789  0.0000E+00  0.0000E+00  0.1200E+02  0.1200E+02
    -50.528  0.0000E+00  0.0000E+00  0.1200E+02  0.1200E+02
    -50.268  0.0000E+00  0.0000E+00  0.1200E+02  0.1200E+02
    -50.007  0.0000E+00  0.0000E+00  0.1200E+02  0.1200E+02
    -49.746  0.0000E+00  0.0000E+00  0.1200E+02  0.1200E+02
    -49.485  0.0000E+00  0.0000E+00  0.1200E+02  0.1200E+02
    -49.224  0.0000E+00  0.0000E+00  0.1200E+02  0.1200E+02
    -48.964  0.0000E+00  0.0000E+00  0.1200E+02  0.1200E+02
    -48.703  0.0000E+00  0.0000E+00  0.1200E+02  0.1200E+02
    -48.442  0.0000E+00  0.0000E+00  0.1200E+02  0.1200E+02
    -48.181  0.0000E+00  0.0000E+00  0.1200E+02  0.1200E+02
    -47.920  0.0000E+00  0.0000E+00  0.1200E+02  0.1200E+02
    -47.660  0.0000E+00  0.0000E+00  0.1200E+02  0.1200E+02
    -47.399  0.0000E+00  0.0000E+00  0.1200E+02  0.1200E+02
    -47.138  0.0000E+00  0.0000E+00  0.1200E+02  0.1200E+02
    -46.877  0.0000E+00  0.0000E+00  0.1200E+02  0.1200E+02
    -46.616  0.0000E+00  0.0000E+00  0.1200E+02  0.1200E+02
    -46.356  0.0000E+00  0.0000E+00  0.1200E+02  0.1200E+02
    -46.095  0.0000E+00  0.0000E+00  0.1200E+02  0.1200E+02
    -45.834  0.0000E+00  0.0000E+00  0.1200E+02  0.1200E+02
    -45.573  0.0000E+00  0.0000E+00  0.1200E+02  0.1200E+02
    -45.313  0.0000E+00  0.0000E+00  0.1200E+02  0.1200E+02
    -45.052  0.0000E+00  0.0000E+00  0.1200E+02  0.1200E+02
    -44.791  0.0000E+00  0.0000E+00  0.1200E+02  0.1200E+02
    -44.530  0.0000E+00  0.0000E+00  0.1200E+02  0.1200E+02
    -44.269  0.0000E+00  0.0000E+00  0.1200E+02  0.1200E+02
    -44.009  0.0000E+00  0.0000E+00  0.1200E+02  0.1200E+02
    -43.748  0.0000E+00  0.0000E+00  0.1200E+02  0.1200E+02
    -43.487  0.0000E+00  0.0000E+00  0.1200E+02  0.1200E+02
    -43.226  0.0000E+00  0.0000E+00  0.1200E+02  0.1200E+02
    -42.965  0.0000E+00  0.0000E+00  0.1200E+02  0.1200E+02
    -42.705  0.0000E+00  0.0000E+00  0.1200E+02  0.1200E+02
    -42.444  0.0000E+00  0.0000E+00  0.1200E+02  0.1200E+02
    -42.183  0.0000E+00  0.0000E+00  0.1200E+02  0.1200E+02
    -41.922  0.0000E+00  0.0000E+00  0.1200E+02  0.1200E+02
    -41.661  0.0000E+00  0.0000E+00  0.1200E+02  0.1200E+02
    -41.401  0.0000E+00  0.0000E+00  0.1200E+02  0.1200E+02
    -41.140  0.0000E+00  0.0000E+00  0.1200E+02  0.1200E+02
    -40.879  0.0000E+00  0.0000E+00  0.1200E+02  0.1200E+02
    -40.618  0.0000E+00  0.0000E+00  0.1200E+02  0.1200E+02
    -40.357  0.0000E+00  0.0000E+00  0.1200E+02  0.1200E+02
    -40.097  0.0000E+00  0.0000E+00  0.1200E+02  0.1200E+02
    -39.836  0.0000E+00  0.0000E+00  0.1200E+02  0.1200E+02
    -39.575  0.0000E+00  0.0000E+00  0.1200E+02  0.1200E+02
    -39.314  0.0000E+00  0.0000E+00  0.1200E+02  0.1200E+02
    -39.053  0.0000E+00  0.0000E+00  0.1200E+02  0.1200E+02
    -38.793  0.0000E+00  0.0000E+00  0.1200E+02  0.1200E+02
    -38.532  0.0000E+00  0.0000E+00  0.1200E+02  0.1200E+02
    -38.271  0.0000E+00  0.0000E+00  0.1200E+02  0.1200E+02
    -38.010  0.0000E+00  0.0000E+00  0.1200E+02  0.1200E+02
    -37.749  0.0000E+00  0.0000E+00  0.1200E+02  0.1200E+02
    -37.489  0.0000E+00  0.0000E+00  0.1200E+02  0.1200E+02
    -37.228  0.0000E+00  0.0000E+00  0.1200E+02  0.1200E+02
    -36.967  0.0000E+00  0.0000E+00  0.1200E+02  0.1200E+02
    -36.706  0.0000E+00  0.0000E+00  0.1200E+02  0.1200E+02
    -36.445  0.0000E+00  0.0000E+00  0.1200E+02  0.1200E+02
    -36.185  0.0000E+00  0.0000E+00  0.1200E+02  0.1200E+02
    -35.924  0.0000E+00  0.0000E+00  0.1200E+02  0.1200E+02
    -35.663  0.0000E+00  0.0000E+00  0.1200E+02  0.1200E+02
    -35.402  0.0000E+00  0.0000E+00  0.1200E+02  0.1200E+02
    -35.141  0.0000E+00  0.0000E+00  0.1200E+02  0.1200E+02
    -34.881  0.0000E+00  0.0000E+00  0.1200E+02  0.1200E+02
    -34.620  0.0000E+00  0.0000E+00  0.1200E+02  0.1200E+02
    -34.359  0.0000E+00  0.0000E+00  0.1200E+02  0.1200E+02
    -34.098  0.0000E+00  0.0000E+00  0.1200E+02  0.1200E+02
    -33.837  0.0000E+00  0.0000E+00  0.1200E+02  0.1200E+02
    -33.577  0.0000E+00  0.0000E+00  0.1200E+02  0.1200E+02
    -33.316  0.0000E+00  0.0000E+00  0.1200E+02  0.1200E+02
    -33.055  0.0000E+00  0.0000E+00  0.1200E+02  0.1200E+02
    -32.794  0.0000E+00  0.0000E+00  0.1200E+02  0.1200E+02
    -32.533  0.0000E+00  0.0000E+00  0.1200E+02  0.1200E+02
    -32.273  0.0000E+00  0.0000E+00  0.1200E+02  0.1200E+02
    -32.012  0.0000E+00  0.0000E+00  0.1200E+02  0.1200E+02
    -31.751  0.0000E+00  0.0000E+00  0.1200E+02  0.1200E+02
    -31.490  0.0000E+00  0.0000E+00  0.1200E+02  0.1200E+02
    -31.230  0.0000E+00  0.0000E+00  0.1200E+02  0.1200E+02
    -30.969  0.0000E+00  0.0000E+00  0.1200E+02  0.1200E+02
    -30.708  0.0000E+00  0.0000E+00  0.1200E+02  0.1200E+02
    -30.447  0.0000E+00  0.0000E+00  0.1200E+02  0.1200E+02
    -30.186  0.0000E+00  0.0000E+00  0.1200E+02  0.1200E+02
    -29.926  0.0000E+00  0.0000E+00  0.1200E+02  0.1200E+02
    -29.665  0.0000E+00  0.0000E+00  0.1200E+02  0.1200E+02
    -29.404  0.0000E+00  0.0000E+00  0.1200E+02  0.1200E+02
    -29.143  0.0000E+00  0.0000E+00  0.1200E+02  0.1200E+02
    -28.882  0.0000E+00  0.0000E+00  0.1200E+02  0.1200E+02
    -28.622  0.0000E+00  0.0000E+00  0.1200E+02  0.1200E+02
    -28.361  0.0000E+00  0.0000E+00  0.1200E+02  0.1200E+02
    -28.100  0.0000E+00  0.0000E+00  0.1200E+02  0.1200E+02
    -27.839  0.0000E+00  0.0000E+00  0.1200E+02  0.1200E+02
    -27.578  0.0000E+00  0.0000E+00  0.1200E+02  0.1200E+02
    -27.318  0.0000E+00  0.0000E+00  0.1200E+02  0.1200E+02
    -27.057  0.0000E+00  0.0000E+00  0.1200E+02  0.1200E+02
    -26.796  0.0000E+00  0.0000E+00  0.1200E+02  0.1200E+02
    -26.535  0.0000E+00  0.0000E+00  0.1200E+02  0.1200E+02
    -26.274  0.0000E+00  0.0000E+00  0.1200E+02  0.1200E+02
    -26.014  0.0000E+00  0.0000E+00  0.1200E+02  0.1200E+02
    -25.753  0.0000E+00  0.0000E+00  0.1200E+02  0.1200E+02
    -25.492  0.0000E+00  0.0000E+00  0.1200E+02  0.1200E+02
    -25.231  0.0000E+00  0.0000E+00  0.1200E+02  0.1200E+02
    -24.970  0.0000E+00  0.0000E+00  0.1200E+02  0.1200E+02
    -24.710  0.0000E+00  0.0000E+00  0.1200E+02  0.1200E+02
    -24.449  0.0000E+00  0.0000E+00  0.1200E+02  0.1200E+02
    -24.188  0.0000E+00  0.0000E+00  0.1200E+02  0.1200E+02
    -23.927  0.0000E+00  0.0000E+00  0.1200E+02  0.1200E+02
    -23.666  0.0000E+00  0.0000E+00  0.1200E+02  0.1200E+02
    -23.406  0.0000E+00  0.0000E+00  0.1200E+02  0.1200E+02
    -23.145  0.0000E+00  0.0000E+00  0.1200E+02  0.1200E+02
    -22.884  0.0000E+00  0.0000E+00  0.1200E+02  0.1200E+02
    -22.623  0.0000E+00  0.0000E+00  0.1200E+02  0.1200E+02
    -22.362  0.0000E+00  0.0000E+00  0.1200E+02  0.1200E+02
    -22.102  0.0000E+00  0.0000E+00  0.1200E+02  0.1200E+02
    -21.841  0.0000E+00  0.0000E+00  0.1200E+02  0.1200E+02
    -21.580  0.0000E+00  0.0000E+00  0.1200E+02  0.1200E+02
    -21.319  0.0000E+00  0.0000E+00  0.1200E+02  0.1200E+02
    -21.058  0.0000E+00  0.0000E+00  0.1200E+02  0.1200E+02
    -20.798  0.0000E+00  0.0000E+00  0.1200E+02  0.1200E+02
    -20.537  0.0000E+00  0.0000E+00  0.1200E+02  0.1200E+02
    -20.276  0.0000E+00  0.0000E+00  0.1200E+02  0.1200E+02
    -20.015  0.0000E+00  0.0000E+00  0.1200E+02  0.1200E+02
    -19.754  0.0000E+00  0.0000E+00  0.1200E+02  0.1200E+02
    -19.494  0.0000E+00  0.0000E+00  0.1200E+02  0.1200E+02
    -19.233  0.0000E+00  0.0000E+00  0.1200E+02  0.1200E+02
    -18.972  0.0000E+00  0.0000E+00  0.1200E+02  0.1200E+02
    -18.711  0.0000E+00  0.0000E+00  0.1200E+02  0.1200E+02
    -18.450  0.0000E+00  0.0000E+00  0.1200E+02  0.1200E+02
    -18.190  0.0000E+00  0.0000E+00  0.1200E+02  0.1200E+02
    -17.929  0.0000E+00  0.0000E+00  0.1200E+02  0.1200E+02
    -17.668  0.0000E+00  0.0000E+00  0.1200E+02  0.1200E+02
    -17.407  0.0000E+00  0.0000E+00  0.1200E+02  0.1200E+02
    -17.147  0.0000E+00  0.0000E+00  0.1200E+02  0.1200E+02
    -16.886  0.0000E+00  0.0000E+00  0.1200E+02  0.1200E+02
    -16.625  0.0000E+00  0.0000E+00  0.1200E+02  0.1200E+02
    -16.364  0.0000E+00  0.0000E+00  0.1200E+02  0.1200E+02
    -16.103  0.0000E+00  0.0000E+00  0.1200E+02  0.1200E+02
    -15.843  0.0000E+00  0.0000E+00  0.1200E+02  0.1200E+02
    -15.582  0.0000E+00  0.0000E+00  0.1200E+02  0.1200E+02
    -15.321  0.0000E+00  0.0000E+00  0.1200E+02  0.1200E+02
    -15.060  0.0000E+00  0.0000E+00  0.1200E+02  0.1200E+02
    -14.799  0.0000E+00  0.0000E+00  0.1200E+02  0.1200E+02
    -14.539  0.0000E+00  0.0000E+00  0.1200E+02  0.1200E+02
    -14.278  0.0000E+00  0.0000E+00  0.1200E+02  0.1200E+02
    -14.017  0.0000E+00  0.0000E+00  0.1200E+02  0.1200E+02
    -13.756  0.0000E+00  0.0000E+00  0.1200E+02  0.1200E+02
    -13.495  0.0000E+00  0.0000E+00  0.1200E+02  0.1200E+02
    -13.235  0.0000E+00  0.0000E+00  0.1200E+02  0.1200E+02
    -12.974  0.0000E+00  0.0000E+00  0.1200E+02  0.1200E+02
    -12.713  0.0000E+00  0.0000E+00  0.1200E+02  0.1200E+02
    -12.452  0.0000E+00  0.0000E+00  0.1200E+02  0.1200E+02
    -12.191  0.0000E+00  0.0000E+00  0.1200E+02  0.1200E+02
    -11.931  0.0000E+00  0.0000E+00  0.1200E+02  0.1200E+02
    -11.670  0.0000E+00  0.0000E+00  0.1200E+02  0.1200E+02
    -11.409  0.0000E+00  0.0000E+00  0.1200E+02  0.1200E+02
    -11.148  0.0000E+00  0.0000E+00  0.1200E+02  0.1200E+02
    -10.887  0.0000E+00  0.0000E+00  0.1200E+02  0.1200E+02
    -10.627  0.0000E+00  0.0000E+00  0.1200E+02  0.1200E+02
    -10.366  0.0000E+00  0.0000E+00  0.1200E+02  0.1200E+02
    -10.105  0.0000E+00  0.0000E+00  0.1200E+02  0.1200E+02
     -9.844  0.0000E+00  0.0000E+00  0.1200E+02  0.1200E+02
     -9.583  0.0000E+00  0.0000E+00  0.1200E+02  0.1200E+02
     -9.323  0.0000E+00  0.0000E+00  0.1200E+02  0.1200E+02
     -9.062  0.0000E+00  0.0000E+00  0.1200E+02  0.1200E+02
     -8.801  0.0000E+00  0.0000E+00  0.1200E+02  0.1200E+02
     -8.540  0.0000E+00  0.0000E+00  0.1200E+02  0.1200E+02
     -8.279  0.0000E+00  0.0000E+00  0.1200E+02  0.1200E+02
     -8.019  0.0000E+00  0.0000E+00  0.1200E+02  0.1200E+02
     -7.758  0.0000E+00  0.0000E+00  0.1200E+02  0.1200E+02
     -7.497  0.0000E+00  0.0000E+00  0.1200E+02  0.1200E+02
     -7.236  0.0000E+00  0.0000E+00  0.1200E+02  0.1200E+02
     -6.975  0.0000E+00  0.0000E+00  0.1200E+02  0.1200E+02
     -6.715  0.0000E+00  0.0000E+00  0.1200E+02  0.1200E+02
     -6.454  0.0000E+00  0.0000E+00  0.1200E+02  0.1200E+02
     -6.193  0.0000E+00  0.0000E+00  0.1200E+02  0.1200E+02
     -5.932  0.0000E+00  0.0000E+00  0.1200E+02  0.1200E+02
     -5.671  0.0000E+00  0.0000E+00  0.1200E+02  0.1200E+02
     -5.411  0.0000E+00  0.0000E+00  0.1200E+02  0.1200E+02
     -5.150  0.0000E+00  0.0000E+00  0.1200E+02  0.1200E+02
     -4.889  0.0000E+00  0.0000E+00  0.1200E+02  0.1200E+02
     -4.628  0.0000E+00  0.0000E+00  0.1200E+02  0.1200E+02
     -4.367  0.0000E+00  0.0000E+00  0.1200E+02  0.1200E+02
     -4.107  0.0000E+00  0.0000E+00  0.1200E+02  0.1200E+02
     -3.846  0.0000E+00  0.0000E+00  0.1200E+02  0.1200E+02
     -3.585  0.0000E+00  0.0000E+00  0.1200E+02  0.1200E+02
     -3.324  0.0000E+00  0.0000E+00  0.1200E+02  0.1200E+02
     -3.064  0.0000E+00  0.0000E+00  0.1200E+02  0.1200E+02
     -2.803  0.0000E+00  0.0000E+00  0.1200E+02  0.1200E+02
     -2.542  0.0000E+00  0.0000E+00  0.1200E+02  0.1200E+02
     -2.281  0.1279E+00  0.1279E+00  0.1201E+02  0.1201E+02
     -2.020  0.3346E+00  0.3346E+00  0.1208E+02  0.1208E+02
     -1.760  0.4810E+00  0.4810E+00  0.1218E+02  0.1218E+02
     -1.499  0.7075E+00  0.7075E+00  0.1234E+02  0.1234E+02
     -1.238  0.6674E+00  0.6674E+00  0.1254E+02  0.1254E+02
     -0.977  0.6388E+00  0.6388E+00  0.1271E+02  0.1271E+02
     -0.716  0.6643E+00  0.6643E+00  0.1288E+02  0.1288E+02
     -0.456  0.7957E+00  0.7957E+00  0.1310E+02  0.1310E+02
     -0.195  0.7037E+00  0.7037E+00  0.1328E+02  0.1328E+02
      0.066  0.9593E+00  0.9593E+00  0.1350E+02  0.1350E+02
      0.327  0.9932E+00  0.9932E+00  0.1377E+02  0.1377E+02
      0.588  0.1181E+01  0.1181E+01  0.1404E+02  0.1404E+02
      0.848  0.1124E+01  0.1124E+01  0.1435E+02  0.1435E+02
      1.109  0.1094E+01  0.1094E+01  0.1464E+02  0.1464E+02
      1.370  0.1254E+01  0.1254E+01  0.1495E+02  0.1495E+02
      1.631  0.1185E+01  0.1185E+01  0.1527E+02  0.1527E+02
      1.892  0.1368E+01  0.1368E+01  0.1561E+02  0.1561E+02
      2.152  0.1250E+01  0.1250E+01  0.1595E+02  0.1595E+02
      2.413  0.1655E+01  0.1655E+01  0.1634E+02  0.1634E+02
      2.674  0.1441E+01  0.1441E+01  0.1675E+02  0.1675E+02
      2.935  0.1857E+01  0.1857E+01  0.1718E+02  0.1718E+02
      3.196  0.1556E+01  0.1556E+01  0.1759E+02  0.1759E+02
      3.456  0.1707E+01  0.1707E+01  0.1803E+02  0.1803E+02
      3.717  0.2025E+01  0.2025E+01  0.1851E+02  0.1851E+02
      3.978  0.1999E+01  0.1999E+01  0.1902E+02  0.1902E+02
      4.239  0.2576E+01  0.2576E+01  0.1966E+02  0.1966E+02
      4.500  0.2189E+01  0.2189E+01  0.2028E+02  0.2028E+02
      4.760  0.2435E+01  0.2435E+01  0.2094E+02  0.2094E+02
      5.021  0.3172E+01  0.3172E+01  0.2165E+02  0.2165E+02
      5.282  0.4440E+01  0.4440E+01  0.2270E+02  0.2270E+02
      5.543  0.4512E+01  0.4512E+01  0.2392E+02  0.2392E+02
      5.804  0.8266E+01  0.8266E+01  0.2554E+02  0.2554E+02
      6.064  0.9438E+01  0.9438E+01  0.2780E+02  0.2780E+02
      6.325  0.6451E+01  0.6451E+01  0.3035E+02  0.3035E+02
      6.586  0.6814E+01  0.6814E+01  0.3249E+02  0.3249E+02
      6.847  0.4503E+01  0.4503E+01  0.3499E+02  0.3499E+02
      7.108  0.9467E+01  0.9467E+01  0.3725E+02  0.3725E+02
      7.368  0.6261E+01  0.6261E+01  0.3954E+02  0.3954E+02
      7.629  0.3653E+01  0.3653E+01  0.4076E+02  0.4076E+02
      7.890  0.3910E+01  0.3910E+01  0.4177E+02  0.4177E+02
      8.151  0.2797E+01  0.2797E+01  0.4266E+02  0.4266E+02
      8.412  0.2467E+01  0.2467E+01  0.4332E+02  0.4332E+02
      8.672  0.2501E+01  0.2501E+01  0.4397E+02  0.4397E+02
      8.933  0.2288E+01  0.2288E+01  0.4465E+02  0.4465E+02
      9.194  0.1502E+01  0.1502E+01  0.4514E+02  0.4514E+02
      9.455  0.2153E+01  0.2153E+01  0.4560E+02  0.4560E+02
      9.715  0.1922E+01  0.1922E+01  0.4608E+02  0.4608E+02
      9.976  0.2328E+01  0.2328E+01  0.4665E+02  0.4665E+02
     10.237  0.2271E+01  0.2271E+01  0.4723E+02  0.4723E+02
     10.498  0.2414E+01  0.2414E+01  0.4787E+02  0.4787E+02
     10.759  0.2287E+01  0.2287E+01  0.4848E+02  0.4848E+02
     11.019  0.2324E+01  0.2324E+01  0.4906E+02  0.4906E+02
     11.280  0.2296E+01  0.2296E+01  0.4969E+02  0.4969E+02
     11.541  0.2175E+01  0.2175E+01  0.5026E+02  0.5026E+02
     11.802  0.2316E+01  0.2316E+01  0.5086E+02  0.5086E+02
     12.063  0.2132E+01  0.2132E+01  0.5143E+02  0.5143E+02
     12.323  0.2143E+01  0.2143E+01  0.5199E+02  0.5199E+02
     12.584  0.2582E+01  0.2582E+01  0.5264E+02  0.5264E+02
     12.845  0.2837E+01  0.2837E+01  0.5332E+02  0.5332E+02
     13.106  0.2582E+01  0.2582E+01  0.5409E+02  0.5409E+02
     13.367  0.2630E+01  0.2630E+01  0.5473E+02  0.5473E+02
     13.627  0.2270E+01  0.2270E+01  0.5539E+02  0.5539E+02
     13.888  0.1984E+01  0.1984E+01  0.5594E+02  0.5594E+02
     14.149  0.2353E+01  0.2353E+01  0.5651E+02  0.5651E+02
     14.410  0.2564E+01  0.2564E+01  0.5715E+02  0.5715E+02
     14.671  0.2428E+01  0.2428E+01  0.5779E+02  0.5779E+02
     14.931  0.2449E+01  0.2449E+01  0.5841E+02  0.5841E+02
     15.192  0.2321E+01  0.2321E+01  0.5907E+02  0.5907E+02
     15.453  0.1591E+01  0.1591E+01  0.5963E+02  0.5963E+02
     15.714  0.6133E+00  0.6133E+00  0.5993E+02  0.5993E+02
     15.975  0.1145E-01  0.1145E-01  0.6000E+02  0.6000E+02
     16.235  0.0000E+00  0.0000E+00  0.6000E+02  0.6000E+02
     16.496  0.0000E+00  0.0000E+00  0.6000E+02  0.6000E+02
     16.757  0.0000E+00  0.0000E+00  0.6000E+02  0.6000E+02
     17.018  0.0000E+00  0.0000E+00  0.6000E+02  0.6000E+02
     17.279  0.0000E+00  0.0000E+00  0.6000E+02  0.6000E+02
     17.539  0.0000E+00  0.0000E+00  0.6000E+02  0.6000E+02
     17.800  0.0000E+00  0.0000E+00  0.6000E+02  0.6000E+02
     18.061  0.0000E+00  0.0000E+00  0.6000E+02  0.6000E+02
     18.322  0.0000E+00  0.0000E+00  0.6000E+02  0.6000E+02
     18.583  0.0000E+00  0.0000E+00  0.6000E+02  0.6000E+02
     18.843  0.0000E+00  0.0000E+00  0.6000E+02  0.6000E+02
     19.104  0.0000E+00  0.0000E+00  0.6000E+02  0.6000E+02
     19.365  0.0000E+00  0.0000E+00  0.6000E+02  0.6000E+02
     19.626  0.0000E+00  0.0000E+00  0.6000E+02  0.6000E+02
