       N       E                     dE             d eps       ncg     rms          rms(c)
DAV:   1     0.867290372040E+03    0.86729E+03   -0.47890E+04 15696   0.148E+03
DAV:   2     0.594845903957E+01   -0.86134E+03   -0.82275E+03 12692   0.461E+02
DAV:   3    -0.583505594717E+02   -0.64299E+02   -0.59532E+02 15268   0.136E+02
DAV:   4    -0.609677204651E+02   -0.26172E+01   -0.25898E+01 14528   0.259E+01
DAV:   5    -0.610400318967E+02   -0.72311E-01   -0.72225E-01 14876   0.468E+00    0.381E+01
DAV:   6    -0.102361548502E+03   -0.41322E+02   -0.30903E+02 14384   0.194E+02    0.529E+01
DAV:   7    -0.547518339927E+02    0.47610E+02   -0.11714E+02 14632   0.121E+02    0.151E+01
DAV:   8    -0.526025105069E+02    0.21493E+01   -0.16262E+01 17352   0.348E+01    0.394E+00
DAV:   9    -0.527828463806E+02   -0.18034E+00   -0.18171E+00 15824   0.191E+01    0.516E+00
DAV:  10    -0.525959000768E+02    0.18695E+00   -0.65795E-01 14524   0.125E+01    0.179E+00
DAV:  11    -0.525899173582E+02    0.59827E-02   -0.91604E-02 16936   0.346E+00    0.132E+00
DAV:  12    -0.525751764061E+02    0.14741E-01   -0.46431E-02 15552   0.375E+00    0.672E-01
DAV:  13    -0.525744203474E+02    0.75606E-03   -0.34364E-02 17668   0.204E+00    0.555E-01
DAV:  14    -0.525718722397E+02    0.25481E-02   -0.50698E-03 17512   0.687E-01    0.247E-01
DAV:  15    -0.525712699552E+02    0.60228E-03   -0.16049E-03 17716   0.340E-01    0.356E-02
DAV:  16    -0.525712708031E+02   -0.84782E-06   -0.11453E-04 14004   0.774E-02    0.242E-02
DAV:  17    -0.525712640717E+02    0.67313E-05   -0.13095E-05 16536   0.306E-02    0.669E-03
DAV:  18    -0.525712634626E+02    0.60916E-06   -0.24690E-06 17020   0.142E-02    0.204E-03
DAV:  19    -0.525712631701E+02    0.29245E-06   -0.31142E-07 14192   0.518E-03    0.116E-03
DAV:  20    -0.525712630308E+02    0.13935E-06   -0.28043E-08 10540   0.126E-03    0.824E-04
DAV:  21    -0.525712629831E+02    0.47648E-07   -0.59353E-09  7372   0.764E-04    0.369E-04
DAV:  22    -0.525712629720E+02    0.11138E-07   -0.51592E-09  7304   0.455E-04    0.326E-05
DAV:  23    -0.525712629736E+02   -0.15953E-08   -0.16635E-09  7256   0.305E-04
   1 F= -.52571263E+02 E0= -.52571130E+02  d E =-.525713E+02  mag=    -0.0000
       N       E                     dE             d eps       ncg     rms          rms(c)
DAV:   1    -0.382539586729E+03   -0.32997E+03   -0.54110E+03 12504   0.813E+02    0.131E+02
DAV:   2    -0.102376995341E+03    0.28016E+03   -0.17478E+03 13872   0.260E+02    0.588E+01
DAV:   3    -0.123596893444E+03   -0.21220E+02   -0.47263E+02 13728   0.188E+02    0.633E+01
DAV:   4    -0.589848266399E+02    0.64612E+02   -0.18753E+02 14736   0.107E+02    0.138E+01
DAV:   5    -0.565674601489E+02    0.24174E+01   -0.69060E+00 14808   0.178E+01    0.110E+01
DAV:   6    -0.552897617520E+02    0.12777E+01   -0.24740E+00 18340   0.216E+01    0.790E+00
DAV:   7    -0.550762417149E+02    0.21352E+00   -0.31635E+00 17668   0.172E+01    0.823E+00
DAV:   8    -0.544938836662E+02    0.58236E+00   -0.16601E+00 15768   0.108E+01    0.171E+00
DAV:   9    -0.544975380762E+02   -0.36544E-02   -0.25610E-01 17160   0.523E+00    0.158E+00
DAV:  10    -0.544819453287E+02    0.15593E-01   -0.59212E-02 16420   0.287E+00    0.317E-01
DAV:  11    -0.544825751415E+02   -0.62981E-03   -0.10614E-02 15416   0.949E-01    0.331E-01
DAV:  12    -0.544816481729E+02    0.92697E-03   -0.31421E-03 15300   0.541E-01    0.454E-02
DAV:  13    -0.544816599795E+02   -0.11807E-04   -0.16909E-04 14120   0.102E-01    0.416E-02
DAV:  14    -0.544816514174E+02    0.85621E-05   -0.40773E-05 15932   0.806E-02    0.125E-02
DAV:  15    -0.544816515406E+02   -0.12313E-06   -0.91421E-06 16896   0.344E-02    0.912E-03
DAV:  16    -0.544816510216E+02    0.51895E-06   -0.15097E-06 14136   0.133E-02    0.238E-03
DAV:  17    -0.544816509908E+02    0.30775E-07   -0.16278E-07 14296   0.302E-03    0.144E-03
DAV:  18    -0.544816509142E+02    0.76667E-07   -0.39006E-08 11480   0.150E-03    0.435E-04
DAV:  19    -0.544816508847E+02    0.29464E-07   -0.98334E-09  7376   0.670E-04    0.111E-04
DAV:  20    -0.544816508868E+02   -0.20354E-08   -0.26772E-09  7112   0.444E-04
   2 F= -.54481651E+02 E0= -.54481280E+02  d E =-.191039E+01  mag=     0.0000
       N       E                     dE             d eps       ncg     rms          rms(c)
DAV:   1    -0.219533651388E+03   -0.16505E+03   -0.12375E+03 14544   0.311E+02    0.136E+02
DAV:   2    -0.432250861993E+03   -0.21272E+03   -0.31199E+03 16768   0.510E+02    0.106E+02
DAV:   3    -0.120689708702E+03    0.31156E+03   -0.12308E+03 14832   0.227E+02    0.480E+01
DAV:   4    -0.104250110494E+03    0.16440E+02   -0.70835E+01 14496   0.481E+01    0.409E+01
DAV:   5    -0.853092149666E+02    0.18941E+02   -0.90033E+00 15584   0.319E+01    0.334E+01
DAV:   6    -0.574323754037E+02    0.27877E+02   -0.63150E+01 15856   0.797E+01    0.653E+00
DAV:   7    -0.582708388517E+02   -0.83846E+00   -0.99558E+00 17096   0.194E+01    0.145E+01
DAV:   8    -0.599365697415E+02   -0.16657E+01   -0.28815E+00 17792   0.167E+01    0.203E+01
DAV:   9    -0.584750701311E+02    0.14615E+01   -0.10290E+00 17296   0.975E+00    0.159E+01
DAV:  10    -0.566493263326E+02    0.18257E+01   -0.44403E+00 17336   0.173E+01    0.189E+00
DAV:  11    -0.566379791867E+02    0.11347E-01   -0.29538E-01 14168   0.308E+00    0.115E+00
DAV:  12    -0.567050866554E+02   -0.67107E-01   -0.21832E-01 17832   0.402E+00    0.284E+00
DAV:  13    -0.566270017828E+02    0.78085E-01   -0.31157E-01 16288   0.520E+00    0.933E-01
DAV:  14    -0.566298392865E+02   -0.28375E-02   -0.67287E-02 14832   0.250E+00    0.945E-01
DAV:  15    -0.566209288494E+02    0.89104E-02   -0.16459E-02 15280   0.124E+00    0.188E-01
DAV:  16    -0.566209172978E+02    0.11552E-04   -0.13015E-03 16000   0.262E-01    0.130E-01
DAV:  17    -0.566207615133E+02    0.15578E-03   -0.56082E-04 18824   0.236E-01    0.362E-02
DAV:  18    -0.566207956543E+02   -0.34141E-04   -0.13217E-04 14176   0.755E-02    0.677E-02
DAV:  19    -0.566207634846E+02    0.32170E-04   -0.58764E-05 15408   0.710E-02    0.271E-02
DAV:  20    -0.566207617479E+02    0.17367E-05   -0.45610E-06 17368   0.245E-02    0.207E-02
DAV:  21    -0.566207588508E+02    0.28972E-05   -0.57590E-06 17496   0.247E-02    0.440E-03
DAV:  22    -0.566207588547E+02   -0.39399E-08   -0.67532E-07 13760   0.458E-03    0.269E-03
DAV:  23    -0.566207588710E+02   -0.16258E-07   -0.80156E-08 13744   0.229E-03    0.118E-03
DAV:  24    -0.566207588904E+02   -0.19494E-07   -0.14844E-08  7368   0.101E-03    0.417E-04
DAV:  25    -0.566207588961E+02   -0.56061E-08   -0.85420E-09  7068   0.631E-04
   3 F= -.56620759E+02 E0= -.56621011E+02  d E =-.404950E+01  mag=    -0.0000
       N       E                     dE             d eps       ncg     rms          rms(c)
DAV:   1    -0.566805286261E+02   -0.59770E-01   -0.42907E-01 13736   0.656E+00    0.278E+00
DAV:   2    -0.570048934716E+02   -0.32436E+00   -0.20812E+00 15072   0.133E+01    0.618E+00
DAV:   3    -0.566201463094E+02    0.38475E+00   -0.10442E+00 14664   0.102E+01    0.341E-01
DAV:   4    -0.566233363049E+02   -0.31900E-02   -0.40513E-02 16320   0.162E+00    0.458E-01
DAV:   5    -0.566222577414E+02    0.10786E-02   -0.38926E-03 16280   0.936E-01    0.253E-01
DAV:   6    -0.566217664867E+02    0.49125E-03   -0.15785E-03 15272   0.364E-01    0.222E-02
DAV:   7    -0.566217705332E+02   -0.40465E-05   -0.87605E-05 16328   0.913E-02    0.304E-02
DAV:   8    -0.566217644904E+02    0.60428E-05   -0.23095E-05 14568   0.732E-02    0.536E-03
DAV:   9    -0.566217640475E+02    0.44289E-06   -0.39215E-06 13856   0.151E-02    0.184E-03
DAV:  10    -0.566217637510E+02    0.29652E-06   -0.38340E-07 16448   0.447E-03    0.168E-03
DAV:  11    -0.566217635277E+02    0.22326E-06   -0.56231E-08 11696   0.210E-03    0.489E-04
DAV:  12    -0.566217634470E+02    0.80743E-07   -0.50038E-09  7184   0.460E-04    0.108E-04
DAV:  13    -0.566217634347E+02    0.12333E-07   -0.16837E-09  7064   0.272E-04    0.399E-05
DAV:  14    -0.566217634361E+02   -0.14534E-08   -0.37456E-10  6968   0.147E-04
   4 F= -.56621763E+02 E0= -.56622020E+02  d E =-.405050E+01  mag=     0.0000
       N       E                     dE             d eps       ncg     rms          rms(c)
DAV:   1    -0.568158161046E+02   -0.19405E+00   -0.16537E+01 14088   0.843E+01    0.798E+00
DAV:   2    -0.590835559241E+02   -0.22677E+01   -0.17198E+01 15092   0.376E+01    0.140E+01
DAV:   3    -0.568454902063E+02    0.22381E+01   -0.61093E+00 14632   0.271E+01    0.181E+00
DAV:   4    -0.568392376573E+02    0.62525E-02   -0.37945E-01 17408   0.519E+00    0.188E+00
DAV:   5    -0.568280305030E+02    0.11207E-01   -0.16885E-01 15696   0.574E+00    0.136E+00
DAV:   6    -0.568146794456E+02    0.13351E-01   -0.41912E-02 15536   0.289E+00    0.200E-01
DAV:   7    -0.568151123900E+02   -0.43294E-03   -0.60401E-03 16584   0.929E-01    0.286E-01
DAV:   8    -0.568145911204E+02    0.52127E-03   -0.21679E-03 14576   0.678E-01    0.562E-02
DAV:   9    -0.568146073700E+02   -0.16250E-04   -0.27813E-04 14040   0.137E-01    0.208E-02
DAV:  10    -0.568146097203E+02   -0.23503E-05   -0.17364E-05 17084   0.303E-02    0.926E-03
DAV:  11    -0.568146090864E+02    0.63392E-06   -0.46464E-06 14296   0.215E-02    0.376E-03
DAV:  12    -0.568146087671E+02    0.31926E-06   -0.79255E-07 14292   0.959E-03    0.128E-03
DAV:  13    -0.568146086627E+02    0.10448E-06   -0.50697E-08 12304   0.212E-03    0.271E-04
DAV:  14    -0.568146086391E+02    0.23592E-07   -0.66439E-09  7320   0.625E-04    0.114E-04
DAV:  15    -0.568146086377E+02    0.13770E-08   -0.20664E-09  7168   0.441E-04
   5 F= -.56814609E+02 E0= -.56815026E+02  d E =-.192845E+00  mag=    -0.0000
       N       E                     dE             d eps       ncg     rms          rms(c)
DAV:   1    -0.569347437022E+02   -0.12014E+00   -0.27775E+01 14152   0.109E+02    0.104E+01
DAV:   2    -0.605750811849E+02   -0.36403E+01   -0.28924E+01 14944   0.495E+01    0.172E+01
DAV:   3    -0.569452269586E+02    0.36299E+01   -0.97125E+00 14712   0.353E+01    0.219E+00
DAV:   4    -0.569334393717E+02    0.11788E-01   -0.66126E-01 17592   0.563E+00    0.209E+00
DAV:   5    -0.569312553431E+02    0.21840E-02   -0.25384E-01 15948   0.727E+00    0.208E+00
DAV:   6    -0.569019018368E+02    0.29354E-01   -0.10112E-01 15160   0.460E+00    0.364E-01
DAV:   7    -0.569020832360E+02   -0.18140E-03   -0.12806E-02 17016   0.138E+00    0.363E-01
DAV:   8    -0.569012204667E+02    0.86277E-03   -0.39806E-03 15296   0.871E-01    0.922E-02
DAV:   9    -0.569012189803E+02    0.14864E-05   -0.43965E-04 14104   0.155E-01    0.355E-02
DAV:  10    -0.569012265551E+02   -0.75748E-05   -0.49036E-05 17472   0.484E-02    0.187E-02
DAV:  11    -0.569012244141E+02    0.21410E-05   -0.22795E-05 14584   0.455E-02    0.934E-03
DAV:  12    -0.569012235141E+02    0.90001E-06   -0.50981E-06 14016   0.234E-02    0.452E-03
DAV:  13    -0.569012231791E+02    0.33497E-06   -0.46409E-07 14920   0.715E-03    0.486E-04
DAV:  14    -0.569012231373E+02    0.41846E-07   -0.32413E-08 11392   0.137E-03    0.127E-04
DAV:  15    -0.569012231278E+02    0.94715E-08   -0.22818E-09  7176   0.506E-04
   6 F= -.56901223E+02 E0= -.56900569E+02  d E =-.279460E+00  mag=    -0.0000
       N       E                     dE             d eps       ncg     rms          rms(c)
DAV:   1    -0.579131157009E+02   -0.10119E+01   -0.32199E+01 14368   0.119E+02    0.140E+01
DAV:   2    -0.653233372179E+02   -0.74102E+01   -0.53311E+01 15976   0.698E+01    0.318E+01
DAV:   3    -0.570932932316E+02    0.82300E+01   -0.25776E+01 15816   0.472E+01    0.504E+00
DAV:   4    -0.571061489811E+02   -0.12856E-01   -0.15751E+00 17512   0.139E+01    0.421E+00
DAV:   5    -0.569736905456E+02    0.13246E+00   -0.33359E-01 15512   0.811E+00    0.119E+00
DAV:   6    -0.569645926811E+02    0.90979E-02   -0.64056E-02 16232   0.226E+00    0.445E-01
DAV:   7    -0.569636230111E+02    0.96967E-03   -0.10212E-02 15208   0.154E+00    0.264E-01
DAV:   8    -0.569629324233E+02    0.69059E-03   -0.37977E-03 13736   0.718E-01    0.181E-01
DAV:   9    -0.569626961743E+02    0.23625E-03   -0.79092E-04 15768   0.279E-01    0.299E-02
DAV:  10    -0.569627026565E+02   -0.64822E-05   -0.87914E-05 15288   0.929E-02    0.249E-02
DAV:  11    -0.569626987952E+02    0.38613E-05   -0.26710E-05 13576   0.529E-02    0.421E-03
DAV:  12    -0.569626991559E+02   -0.36072E-06   -0.16582E-06 14336   0.153E-02    0.142E-03
DAV:  13    -0.569626992383E+02   -0.82444E-07   -0.12555E-07 15872   0.386E-03    0.480E-04
DAV:  14    -0.569626992473E+02   -0.89731E-08   -0.13687E-08  7760   0.152E-03
   7 F= -.56962699E+02 E0= -.56962747E+02  d E =-.614761E-01  mag=     0.0000
       N       E                     dE             d eps       ncg     rms          rms(c)
DAV:   1    -0.569875878679E+02   -0.24889E-01   -0.69481E-01 14680   0.178E+01    0.227E+00
DAV:   2    -0.571934857484E+02   -0.20590E+00   -0.13828E+00 15040   0.111E+01    0.501E+00
DAV:   3    -0.569650471443E+02    0.22844E+00   -0.71556E-01 14648   0.821E+00    0.591E-01
DAV:   4    -0.569659987661E+02   -0.95162E-03   -0.31227E-02 17048   0.177E+00    0.529E-01
DAV:   5    -0.569639653456E+02    0.20334E-02   -0.51361E-03 15104   0.971E-01    0.155E-01
DAV:   6    -0.569638241545E+02    0.14119E-03   -0.10659E-03 15528   0.294E-01    0.591E-02
DAV:   7    -0.569638109906E+02    0.13164E-04   -0.17738E-04 14240   0.208E-01    0.354E-02
DAV:   8    -0.569638002390E+02    0.10752E-04   -0.89671E-05 14040   0.108E-01    0.231E-02
DAV:   9    -0.569637972920E+02    0.29470E-05   -0.97563E-06 15312   0.301E-02    0.470E-03
DAV:  10    -0.569637975886E+02   -0.29657E-06   -0.25011E-06 16456   0.121E-02    0.420E-03
DAV:  11    -0.569637976039E+02   -0.15296E-07   -0.60092E-07 13728   0.713E-03    0.420E-04
DAV:  12    -0.569637976554E+02   -0.51486E-07   -0.19994E-08  9608   0.110E-03    0.140E-04
DAV:  13    -0.569637976706E+02   -0.15205E-07   -0.29968E-09  7080   0.474E-04    0.507E-05
DAV:  14    -0.569637976717E+02   -0.10568E-08   -0.71300E-10  6968   0.216E-04
   8 F= -.56963798E+02 E0= -.56963953E+02  d E =-.625745E-01  mag=    -0.0000
       N       E                     dE             d eps       ncg     rms          rms(c)
DAV:   1    -0.566470277336E+02    0.31677E+00   -0.17594E+01 16344   0.104E+02    0.639E+00
DAV:   2    -0.585720969000E+02   -0.19251E+01   -0.14937E+01 15480   0.332E+01    0.117E+01
DAV:   3    -0.570100231881E+02    0.15621E+01   -0.45352E+00 14616   0.232E+01    0.116E+00
DAV:   4    -0.570146647219E+02   -0.46415E-02   -0.21002E-01 15056   0.281E+00    0.101E+00
DAV:   5    -0.570161314578E+02   -0.14667E-02   -0.55773E-02 15872   0.368E+00    0.118E+00
DAV:   6    -0.570060734335E+02    0.10058E-01   -0.34594E-02 15112   0.273E+00    0.277E-01
DAV:   7    -0.570059793145E+02    0.94119E-04   -0.57296E-03 16680   0.907E-01    0.249E-01
DAV:   8    -0.570055006547E+02    0.47866E-03   -0.17341E-03 15248   0.580E-01    0.434E-02
DAV:   9    -0.570055025180E+02   -0.18632E-05   -0.35843E-04 13512   0.123E-01    0.366E-02
DAV:  10    -0.570054940796E+02    0.84384E-05   -0.35165E-05 15224   0.507E-02    0.883E-03
DAV:  11    -0.570054936640E+02    0.41565E-06   -0.32244E-06 13896   0.156E-02    0.163E-03
DAV:  12    -0.570054934619E+02    0.20204E-06   -0.25189E-07 14448   0.540E-03    0.797E-04
DAV:  13    -0.570054933387E+02    0.12325E-06   -0.29524E-08 10320   0.190E-03    0.319E-04
DAV:  14    -0.570054933197E+02    0.18936E-07   -0.53101E-09  7280   0.643E-04    0.620E-05
DAV:  15    -0.570054933161E+02    0.36453E-08   -0.17535E-09  7056   0.283E-04
   9 F= -.57005493E+02 E0= -.57005828E+02  d E =-.416956E-01  mag=    -0.0000
       N       E                     dE             d eps       ncg     rms          rms(c)
DAV:   1    -0.568844628099E+02    0.12103E+00   -0.51255E+00 15144   0.578E+01    0.336E+00
DAV:   2    -0.574248155278E+02   -0.54035E+00   -0.42641E+00 15568   0.174E+01    0.617E+00
DAV:   3    -0.570153901622E+02    0.40943E+00   -0.12992E+00 14528   0.120E+01    0.776E-01
DAV:   4    -0.570144345447E+02    0.95562E-03   -0.49689E-02 14776   0.156E+00    0.564E-01
DAV:   5    -0.570149143247E+02   -0.47978E-03   -0.17374E-02 15896   0.212E+00    0.661E-01
DAV:   6    -0.570115665558E+02    0.33478E-02   -0.10150E-02 15176   0.154E+00    0.114E-01
DAV:   7    -0.570116305803E+02   -0.64025E-04   -0.17968E-03 16472   0.495E-01    0.130E-01
DAV:   8    -0.570115126770E+02    0.11790E-03   -0.43759E-04 15224   0.343E-01    0.272E-02
DAV:   9    -0.570115102024E+02    0.24746E-05   -0.84242E-05 13912   0.671E-02    0.211E-02
DAV:  10    -0.570115079009E+02    0.23015E-05   -0.13362E-05 16632   0.361E-02    0.589E-03
DAV:  11    -0.570115074883E+02    0.41260E-06   -0.21533E-06 13912   0.170E-02    0.122E-03
DAV:  12    -0.570115073882E+02    0.10007E-06   -0.13525E-07 14120   0.432E-03    0.501E-04
DAV:  13    -0.570115073092E+02    0.79030E-07   -0.12771E-08  7288   0.110E-03    0.201E-04
DAV:  14    -0.570115072961E+02    0.13097E-07   -0.31044E-09  7112   0.460E-04    0.577E-05
DAV:  15    -0.570115072926E+02    0.35470E-08   -0.91945E-10  6968   0.227E-04
  10 F= -.57011507E+02 E0= -.57011910E+02  d E =-.477096E-01  mag=    -0.0000
       N       E                     dE             d eps       ncg     rms          rms(c)
DAV:   1    -0.570529893647E+02   -0.41482E-01   -0.55078E+00 14288   0.476E+01    0.452E+00
DAV:   2    -0.577643078260E+02   -0.71132E+00   -0.55365E+00 15112   0.219E+01    0.893E+00
DAV:   3    -0.570550205654E+02    0.70929E+00   -0.22862E+00 14904   0.153E+01    0.175E+00
DAV:   4    -0.570594354425E+02   -0.44149E-02   -0.20074E-01 16504   0.612E+00    0.195E+00
DAV:   5    -0.570271468214E+02    0.32289E-01   -0.91522E-02 16024   0.438E+00    0.229E-01
DAV:   6    -0.570275028643E+02   -0.35604E-03   -0.10069E-02 14032   0.891E-01    0.206E-01
DAV:   7    -0.570272536874E+02    0.24918E-03   -0.14837E-03 14208   0.626E-01    0.664E-02
DAV:   8    -0.570272474072E+02    0.62802E-05   -0.46758E-04 14248   0.204E-01    0.605E-02
DAV:   9    -0.570272288510E+02    0.18556E-04   -0.86414E-05 14952   0.941E-02    0.130E-02
DAV:  10    -0.570272315234E+02   -0.26724E-05   -0.96226E-06 14216   0.238E-02    0.609E-03
DAV:  11    -0.570272316120E+02   -0.88670E-07   -0.11542E-06 13960   0.972E-03    0.147E-03
DAV:  12    -0.570272317159E+02   -0.10388E-06   -0.13878E-07 16288   0.372E-03    0.367E-04
DAV:  13    -0.570272317269E+02   -0.11025E-07   -0.92058E-09  7272   0.128E-03    0.123E-04
DAV:  14    -0.570272317354E+02   -0.84347E-08   -0.17594E-09  7128   0.425E-04
  11 F= -.57027232E+02 E0= -.57027083E+02  d E =-.157244E-01  mag=    -0.0000
       N       E                     dE             d eps       ncg     rms          rms(c)
DAV:   1    -0.570287008731E+02   -0.14691E-02   -0.20948E-01 14360   0.913E+00    0.917E-01
DAV:   2    -0.570591667999E+02   -0.30466E-01   -0.22543E-01 15072   0.444E+00    0.182E+00
DAV:   3    -0.570285250401E+02    0.30642E-01   -0.95101E-02 14472   0.320E+00    0.315E-01
DAV:   4    -0.570289623671E+02   -0.43733E-03   -0.82738E-03 16976   0.125E+00    0.399E-01
DAV:   5    -0.570276546190E+02    0.13077E-02   -0.35748E-03 16000   0.923E-01    0.451E-02
DAV:   6    -0.570276660320E+02   -0.11413E-04   -0.37780E-04 13432   0.139E-01    0.217E-02
DAV:   7    -0.570276653843E+02    0.64770E-06   -0.29090E-05 15568   0.795E-02    0.173E-02
DAV:   8    -0.570276641752E+02    0.12091E-05   -0.12336E-05 14376   0.456E-02    0.939E-03
DAV:   9    -0.570276641232E+02    0.51981E-07   -0.21192E-06 14872   0.143E-02    0.235E-03
DAV:  10    -0.570276643390E+02   -0.21579E-06   -0.38259E-07 14336   0.407E-03    0.116E-03
DAV:  11    -0.570276643817E+02   -0.42664E-07   -0.52339E-08 12432   0.217E-03    0.238E-04
DAV:  12    -0.570276644037E+02   -0.21986E-07   -0.35431E-09  7120   0.651E-04    0.610E-05
DAV:  13    -0.570276644073E+02   -0.36543E-08   -0.90270E-10  7024   0.289E-04
  12 F= -.57027664E+02 E0= -.57027330E+02  d E =-.161571E-01  mag=     0.0000
       N       E                     dE             d eps       ncg     rms          rms(c)
DAV:   1    -0.571340680335E+02   -0.10640E+00   -0.13456E+00 14176   0.157E+01    0.372E+00
DAV:   2    -0.576284471347E+02   -0.49438E+00   -0.33574E+00 14808   0.177E+01    0.748E+00
DAV:   3    -0.570330741451E+02    0.59537E+00   -0.16325E+00 14560   0.133E+01    0.563E-01
DAV:   4    -0.570389640988E+02   -0.58900E-02   -0.85701E-02 17136   0.248E+00    0.916E-01
DAV:   5    -0.570342650877E+02    0.46990E-02   -0.19582E-02 15656   0.219E+00    0.421E-01
DAV:   6    -0.570328671339E+02    0.13980E-02   -0.51949E-03 15448   0.758E-01    0.439E-02
DAV:   7    -0.570328879882E+02   -0.20854E-04   -0.35716E-04 16056   0.180E-01    0.533E-02
DAV:   8    -0.570328716094E+02    0.16379E-04   -0.94246E-05 14616   0.171E-01    0.194E-02
DAV:   9    -0.570328706086E+02    0.10008E-05   -0.17261E-05 13816   0.492E-02    0.770E-03
DAV:  10    -0.570328699462E+02    0.66247E-06   -0.28430E-06 17400   0.152E-02    0.357E-03
DAV:  11    -0.570328696082E+02    0.33796E-06   -0.36736E-07 14048   0.578E-03    0.137E-03
DAV:  12    -0.570328695400E+02    0.68207E-07   -0.36947E-08 10184   0.135E-03    0.444E-04
DAV:  13    -0.570328694983E+02    0.41708E-07   -0.68355E-09  7432   0.546E-04    0.792E-05
DAV:  14    -0.570328694985E+02   -0.22919E-09   -0.16236E-09  7088   0.258E-04
  13 F= -.57032869E+02 E0= -.57031999E+02  d E =-.520509E-02  mag=    -0.0000
       N       E                     dE             d eps       ncg     rms          rms(c)
DAV:   1    -0.570427233634E+02   -0.98539E-02   -0.12676E-01 14192   0.483E+00    0.114E+00
DAV:   2    -0.570920567900E+02   -0.49333E-01   -0.31817E-01 14872   0.547E+00    0.245E+00
DAV:   3    -0.570332879415E+02    0.58769E-01   -0.16625E-01 14496   0.410E+00    0.202E-01
DAV:   4    -0.570340857249E+02   -0.79778E-03   -0.84056E-03 17328   0.957E-01    0.353E-01
DAV:   5    -0.570332099467E+02    0.87578E-03   -0.24747E-03 15584   0.844E-01    0.813E-02
DAV:   6    -0.570331760290E+02    0.33918E-04   -0.36327E-04 15128   0.145E-01    0.168E-02
DAV:   7    -0.570331771731E+02   -0.11440E-05   -0.27171E-05 16824   0.734E-02    0.202E-02
DAV:   8    -0.570331742500E+02    0.29231E-05   -0.10371E-05 15352   0.552E-02    0.640E-03
DAV:   9    -0.570331739837E+02    0.26631E-06   -0.18163E-06 13640   0.123E-02    0.190E-03
DAV:  10    -0.570331737603E+02    0.22340E-06   -0.30446E-07 16992   0.454E-03    0.125E-03
DAV:  11    -0.570331736960E+02    0.64261E-07   -0.56721E-08 12152   0.278E-03    0.275E-04
DAV:  12    -0.570331736697E+02    0.26301E-07   -0.40547E-09  7112   0.560E-04    0.103E-04
DAV:  13    -0.570331736601E+02    0.96079E-08   -0.83644E-10  6984   0.257E-04
  14 F= -.57033174E+02 E0= -.57032132E+02  d E =-.550925E-02  mag=     0.0000
       N       E                     dE             d eps       ncg     rms          rms(c)
DAV:   1    -0.570791545030E+02   -0.45981E-01   -0.11920E+00 14272   0.210E+01    0.290E+00
DAV:   2    -0.574113394472E+02   -0.33218E+00   -0.21858E+00 15048   0.143E+01    0.636E+00
DAV:   3    -0.570395171678E+02    0.37182E+00   -0.10852E+00 14544   0.103E+01    0.738E-01
DAV:   4    -0.570429246218E+02   -0.34075E-02   -0.57553E-02 17128   0.268E+00    0.889E-01
DAV:   5    -0.570368198274E+02    0.61048E-02   -0.16753E-02 15704   0.210E+00    0.155E-01
DAV:   6    -0.570368614595E+02   -0.41632E-04   -0.24436E-03 16432   0.492E-01    0.138E-01
DAV:   7    -0.570367384457E+02    0.12301E-03   -0.49003E-04 14744   0.381E-01    0.343E-02
DAV:   8    -0.570367370471E+02    0.13986E-05   -0.11452E-04 14720   0.978E-02    0.285E-02
DAV:   9    -0.570367336071E+02    0.34400E-05   -0.18386E-05 14960   0.483E-02    0.561E-03
DAV:  10    -0.570367343535E+02   -0.74647E-06   -0.16973E-06 13880   0.106E-02    0.208E-03
DAV:  11    -0.570367345379E+02   -0.18431E-06   -0.13984E-07 14224   0.359E-03    0.563E-04
DAV:  12    -0.570367346153E+02   -0.77414E-07   -0.13563E-08  7408   0.128E-03    0.183E-04
DAV:  13    -0.570367346320E+02   -0.16747E-07   -0.38732E-09  7152   0.525E-04    0.415E-05
DAV:  14    -0.570367346308E+02    0.11732E-08   -0.95485E-10  7104   0.232E-04
  15 F= -.57036735E+02 E0= -.57035478E+02  d E =-.356097E-02  mag=     0.0000
       N       E                     dE             d eps       ncg     rms          rms(c)
DAV:   1    -0.570446410464E+02   -0.79064E-02   -0.20740E-01 14288   0.882E+00    0.124E+00
DAV:   2    -0.571079135378E+02   -0.63272E-01   -0.39611E-01 14896   0.610E+00    0.277E+00
DAV:   3    -0.570374582075E+02    0.70455E-01   -0.20196E-01 14400   0.451E+00    0.297E-01
DAV:   4    -0.570381273473E+02   -0.66914E-03   -0.10540E-02 17144   0.117E+00    0.372E-01
DAV:   5    -0.570370676821E+02    0.10597E-02   -0.28625E-03 15768   0.823E-01    0.702E-02
DAV:   6    -0.570370633270E+02    0.43551E-05   -0.41201E-04 15856   0.185E-01    0.466E-02
DAV:   7    -0.570370506647E+02    0.12662E-04   -0.66468E-05 14472   0.141E-01    0.154E-02
DAV:   8    -0.570370502219E+02    0.44272E-06   -0.17140E-05 14472   0.420E-02    0.109E-02
DAV:   9    -0.570370499578E+02    0.26413E-06   -0.26893E-06 14984   0.185E-02    0.231E-03
DAV:  10    -0.570370502298E+02   -0.27199E-06   -0.27172E-07 13784   0.408E-03    0.757E-04
DAV:  11    -0.570370503158E+02   -0.85953E-07   -0.18840E-08  8608   0.140E-03    0.238E-04
DAV:  12    -0.570370503498E+02   -0.34039E-07   -0.50517E-09  7128   0.624E-04    0.938E-05
DAV:  13    -0.570370503535E+02   -0.36707E-08   -0.12255E-09  7048   0.286E-04
  16 F= -.57037050E+02 E0= -.57035800E+02  d E =-.387669E-02  mag=    -0.0000
       N       E                     dE             d eps       ncg     rms          rms(c)
DAV:   1    -0.570379691536E+02   -0.91880E-03   -0.29715E-01 13616   0.113E+01    0.101E+00
DAV:   2    -0.570779029313E+02   -0.39934E-01   -0.28703E-01 15280   0.485E+00    0.199E+00
DAV:   3    -0.570397567888E+02    0.38146E-01   -0.11388E-01 14488   0.344E+00    0.296E-01
DAV:   4    -0.570396745482E+02    0.82241E-04   -0.67700E-03 17176   0.904E-01    0.319E-01
DAV:   5    -0.570390328762E+02    0.64167E-03   -0.34260E-03 15432   0.941E-01    0.119E-01
DAV:   6    -0.570389409376E+02    0.91939E-04   -0.44503E-04 15848   0.276E-01    0.194E-02
DAV:   7    -0.570389471540E+02   -0.62164E-05   -0.68012E-05 16824   0.110E-01    0.319E-02
DAV:   8    -0.570389407265E+02    0.64275E-05   -0.25336E-05 14688   0.864E-02    0.812E-03
DAV:   9    -0.570389407747E+02   -0.48154E-07   -0.35761E-06 14184   0.160E-02    0.300E-03
DAV:  10    -0.570389406608E+02    0.11385E-06   -0.44444E-07 17344   0.567E-03    0.134E-03
DAV:  11    -0.570389405934E+02    0.67466E-07   -0.76895E-08 13520   0.361E-03    0.232E-04
DAV:  12    -0.570389405677E+02    0.25711E-07   -0.57807E-09  7224   0.865E-04    0.789E-05
DAV:  13    -0.570389405595E+02    0.81309E-08   -0.15306E-09  7040   0.326E-04
  17 F= -.57038941E+02 E0= -.57037690E+02  d E =-.189021E-02  mag=     0.0000
       N       E                     dE             d eps       ncg     rms          rms(c)
DAV:   1    -0.570383709556E+02    0.56961E-03   -0.40731E-01 13704   0.133E+01    0.117E+00
DAV:   2    -0.570919618548E+02   -0.53591E-01   -0.39026E-01 15280   0.566E+00    0.229E+00
DAV:   3    -0.570409644088E+02    0.50997E-01   -0.15274E-01 14504   0.399E+00    0.344E-01
DAV:   4    -0.570409023760E+02    0.62033E-04   -0.93963E-03 17448   0.108E+00    0.381E-01
DAV:   5    -0.570399701750E+02    0.93220E-03   -0.48402E-03 15504   0.114E+00    0.134E-01
DAV:   6    -0.570398557417E+02    0.11443E-03   -0.60899E-04 15760   0.314E-01    0.227E-02
DAV:   7    -0.570398636374E+02   -0.78958E-05   -0.92499E-05 16392   0.132E-01    0.368E-02
DAV:   8    -0.570398553220E+02    0.83155E-05   -0.37342E-05 14872   0.106E-01    0.101E-02
DAV:   9    -0.570398553006E+02    0.21428E-07   -0.48401E-06 14216   0.204E-02    0.373E-03
DAV:  10    -0.570398551532E+02    0.14735E-06   -0.68853E-07 17384   0.659E-03    0.157E-03
DAV:  11    -0.570398550670E+02    0.86238E-07   -0.12262E-07 13640   0.409E-03    0.296E-04
DAV:  12    -0.570398550383E+02    0.28656E-07   -0.89545E-09  7272   0.989E-04    0.116E-04
DAV:  13    -0.570398550263E+02    0.12024E-07   -0.16316E-09  7128   0.401E-04    0.420E-05
DAV:  14    -0.570398550224E+02    0.39181E-08   -0.45191E-10  7048   0.173E-04
  18 F= -.57039855E+02 E0= -.57038798E+02  d E =-.280467E-02  mag=    -0.0000
       N       E                     dE             d eps       ncg     rms          rms(c)
DAV:   1    -0.570528091776E+02   -0.12954E-01   -0.29478E-01 14792   0.538E+00    0.107E+00
DAV:   2    -0.570787823584E+02   -0.25973E-01   -0.20332E-01 14944   0.456E+00    0.199E+00
DAV:   3    -0.570435444973E+02    0.35238E-01   -0.10794E-01 14568   0.341E+00    0.397E-01
DAV:   4    -0.570460578206E+02   -0.25133E-02   -0.20018E-02 16816   0.214E+00    0.747E-01
DAV:   5    -0.570418293265E+02    0.42285E-02   -0.10784E-02 15880   0.172E+00    0.722E-02
DAV:   6    -0.570418903173E+02   -0.60991E-04   -0.11910E-03 14848   0.244E-01    0.543E-02
DAV:   7    -0.570418779393E+02    0.12378E-04   -0.10662E-04 14424   0.165E-01    0.251E-02
DAV:   8    -0.570418751171E+02    0.28222E-05   -0.19671E-05 15304   0.603E-02    0.897E-03
DAV:   9    -0.570418763489E+02   -0.12318E-05   -0.38955E-06 14112   0.144E-02    0.294E-03
DAV:  10    -0.570418765348E+02   -0.18594E-06   -0.40998E-07 16864   0.735E-03    0.102E-03
DAV:  11    -0.570418765826E+02   -0.47836E-07   -0.49514E-08 12352   0.318E-03    0.351E-04
DAV:  12    -0.570418765969E+02   -0.14221E-07   -0.43628E-09  7176   0.792E-04    0.791E-05
DAV:  13    -0.570418766025E+02   -0.56407E-08   -0.10865E-09  7080   0.197E-04
  19 F= -.57041877E+02 E0= -.57041154E+02  d E =-.202158E-02  mag=    -0.0000
       N       E                     dE             d eps       ncg     rms          rms(c)
DAV:   1    -0.571291971670E+02   -0.87321E-01   -0.23284E+00 14600   0.152E+01    0.295E+00
DAV:   2    -0.573075250745E+02   -0.17833E+00   -0.15125E+00 15056   0.124E+01    0.532E+00
DAV:   3    -0.570582497923E+02    0.24928E+00   -0.79491E-01 14728   0.911E+00    0.113E+00
DAV:   4    -0.570767665251E+02   -0.18517E-01   -0.15780E-01 16696   0.581E+00    0.207E+00
DAV:   5    -0.570440780557E+02    0.32688E-01   -0.87992E-02 15880   0.433E+00    0.205E-01
DAV:   6    -0.570449351779E+02   -0.85712E-03   -0.10218E-02 17384   0.104E+00    0.294E-01
DAV:   7    -0.570443929953E+02    0.54218E-03   -0.22660E-03 14256   0.777E-01    0.615E-02
DAV:   8    -0.570443915231E+02    0.14723E-05   -0.27899E-04 16040   0.150E-01    0.249E-02
DAV:   9    -0.570443987735E+02   -0.72505E-05   -0.30080E-05 14448   0.564E-02    0.107E-02
DAV:  10    -0.570443993380E+02   -0.56443E-06   -0.48068E-06 14328   0.336E-02    0.353E-03
DAV:  11    -0.570443994282E+02   -0.90269E-07   -0.57629E-07 14880   0.104E-02    0.574E-04
DAV:  12    -0.570443994699E+02   -0.41671E-07   -0.58495E-08 12616   0.195E-03    0.210E-04
DAV:  13    -0.570443994825E+02   -0.12629E-07   -0.33731E-09  7224   0.446E-04    0.102E-04
DAV:  14    -0.570443994900E+02   -0.75142E-08   -0.97354E-10  7072   0.321E-04
  20 F= -.57044399E+02 E0= -.57044622E+02  d E =-.454447E-02  mag=     0.0000
       N       E                     dE             d eps       ncg     rms          rms(c)
DAV:   1    -0.570481270964E+02   -0.37276E-02   -0.11912E-01 15208   0.352E+00    0.512E-01
DAV:   2    -0.570485721118E+02   -0.44502E-03   -0.26949E-02 14408   0.164E+00    0.525E-01
DAV:   3    -0.570462985435E+02    0.22736E-02   -0.11220E-02 15008   0.115E+00    0.267E-01
DAV:   4    -0.570461914605E+02    0.10708E-03   -0.44244E-03 15856   0.102E+00    0.328E-01
DAV:   5    -0.570454100468E+02    0.78141E-03   -0.21590E-03 15184   0.766E-01    0.252E-02
DAV:   6    -0.570454278537E+02   -0.17807E-04   -0.25705E-04 13440   0.121E-01    0.295E-02
DAV:   7    -0.570454234913E+02    0.43624E-05   -0.25285E-05 14592   0.808E-02    0.124E-02
DAV:   8    -0.570454230110E+02    0.48035E-06   -0.62439E-06 16056   0.297E-02    0.514E-03
DAV:   9    -0.570454232919E+02   -0.28096E-06   -0.11287E-06 14176   0.108E-02    0.144E-03
DAV:  10    -0.570454232613E+02    0.30617E-07   -0.10852E-07 15248   0.375E-03    0.483E-04
DAV:  11    -0.570454232364E+02    0.24917E-07   -0.77142E-09  7216   0.927E-04    0.768E-05
DAV:  12    -0.570454232296E+02    0.67812E-08   -0.19038E-09  7008   0.372E-04
  21 F= -.57045423E+02 E0= -.57045807E+02  d E =-.102374E-02  mag=    -0.0000
       N       E                     dE             d eps       ncg     rms          rms(c)
DAV:   1    -0.570717393282E+02   -0.26316E-01   -0.10717E+00 15192   0.106E+01    0.154E+00
DAV:   2    -0.570755368411E+02   -0.37975E-02   -0.24319E-01 14392   0.483E+00    0.157E+00
DAV:   3    -0.570550020884E+02    0.20535E-01   -0.10067E-01 14944   0.347E+00    0.799E-01
DAV:   4    -0.570539620063E+02    0.10401E-02   -0.39817E-02 15768   0.297E+00    0.984E-01
DAV:   5    -0.570469676389E+02    0.69944E-02   -0.19815E-02 15024   0.233E+00    0.771E-02
DAV:   6    -0.570471157048E+02   -0.14807E-03   -0.23678E-03 13376   0.345E-01    0.704E-02
DAV:   7    -0.570470970270E+02    0.18678E-04   -0.16674E-04 15208   0.202E-01    0.394E-02
DAV:   8    -0.570470904139E+02    0.66131E-05   -0.51777E-05 15912   0.922E-02    0.148E-02
DAV:   9    -0.570470930255E+02   -0.26116E-05   -0.10455E-05 14112   0.301E-02    0.437E-03
DAV:  10    -0.570470929359E+02    0.89593E-07   -0.91811E-07 17056   0.928E-03    0.150E-03
DAV:  11    -0.570470928596E+02    0.76287E-07   -0.72669E-08 13840   0.227E-03    0.213E-04
DAV:  12    -0.570470928446E+02    0.14972E-07   -0.49930E-09  7264   0.633E-04    0.721E-05
DAV:  13    -0.570470928402E+02    0.44147E-08   -0.11380E-09  7104   0.239E-04
  22 F= -.57047093E+02 E0= -.57047761E+02  d E =-.269335E-02  mag=    -0.0000
       N       E                     dE             d eps       ncg     rms          rms(c)
DAV:   1    -0.570493606048E+02   -0.22678E-02   -0.68150E-02 14432   0.517E+00    0.521E-01
DAV:   2    -0.570580660660E+02   -0.87055E-02   -0.69196E-02 14936   0.249E+00    0.949E-01
DAV:   3    -0.570490719020E+02    0.89942E-02   -0.28125E-02 14448   0.171E+00    0.146E-01
DAV:   4    -0.570489747845E+02    0.97118E-04   -0.15009E-03 17600   0.412E-01    0.131E-01
DAV:   5    -0.570488797295E+02    0.95055E-04   -0.77823E-04 15528   0.454E-01    0.633E-02
DAV:   6    -0.570488504381E+02    0.29291E-04   -0.11793E-04 15368   0.154E-01    0.880E-03
DAV:   7    -0.570488522763E+02   -0.18382E-05   -0.18827E-05 16896   0.552E-02    0.165E-02
DAV:   8    -0.570488505046E+02    0.17716E-05   -0.66481E-06 14496   0.455E-02    0.347E-03
DAV:   9    -0.570488504777E+02    0.26965E-07   -0.89724E-07 14368   0.774E-03    0.154E-03
DAV:  10    -0.570488503995E+02    0.78164E-07   -0.79657E-08 14640   0.317E-03    0.448E-04
DAV:  11    -0.570488503563E+02    0.43181E-07   -0.13394E-08  7136   0.159E-03    0.176E-04
DAV:  12    -0.570488503407E+02    0.15660E-07   -0.36930E-09  6944   0.629E-04    0.685E-05
DAV:  13    -0.570488503385E+02    0.21282E-08   -0.76509E-10  6848   0.223E-04
  23 F= -.57048850E+02 E0= -.57049549E+02  d E =-.175750E-02  mag=    -0.0000
       N       E                     dE             d eps       ncg     rms          rms(c)
DAV:   1    -0.570567759988E+02   -0.79257E-02   -0.61226E-01 14448   0.155E+01    0.156E+00
DAV:   2    -0.571339622802E+02   -0.77186E-01   -0.61910E-01 14888   0.744E+00    0.281E+00
DAV:   3    -0.570542095071E+02    0.79753E-01   -0.24819E-01 14464   0.512E+00    0.432E-01
DAV:   4    -0.570533074179E+02    0.90209E-03   -0.13262E-02 17496   0.121E+00    0.381E-01
DAV:   5    -0.570525418280E+02    0.76559E-03   -0.68591E-03 15424   0.131E+00    0.196E-01
DAV:   6    -0.570522602810E+02    0.28155E-03   -0.11016E-03 15168   0.490E-01    0.258E-02
DAV:   7    -0.570522778594E+02   -0.17578E-04   -0.17311E-04 16912   0.165E-01    0.494E-02
DAV:   8    -0.570522623219E+02    0.15537E-04   -0.59582E-05 14520   0.137E-01    0.103E-02
DAV:   9    -0.570522625815E+02   -0.25957E-06   -0.80265E-06 14552   0.230E-02    0.466E-03
DAV:  10    -0.570522623991E+02    0.18246E-06   -0.72993E-07 17792   0.966E-03    0.136E-03
DAV:  11    -0.570522622688E+02    0.13030E-06   -0.12825E-07 13288   0.463E-03    0.490E-04
DAV:  12    -0.570522622190E+02    0.49798E-07   -0.15977E-08  7232   0.167E-03    0.200E-04
DAV:  13    -0.570522622084E+02    0.10587E-07   -0.24636E-09  7032   0.486E-04    0.597E-05
DAV:  14    -0.570522622077E+02    0.65484E-09   -0.69967E-10  6864   0.167E-04
  24 F= -.57052262E+02 E0= -.57053024E+02  d E =-.516937E-02  mag=     0.0000
       N       E                     dE             d eps       ncg     rms          rms(c)
DAV:   1    -0.570688067706E+02   -0.16545E-01   -0.24462E+00 14416   0.311E+01    0.315E+00
DAV:   2    -0.573794772540E+02   -0.31067E+00   -0.24935E+00 14904   0.149E+01    0.554E+00
DAV:   3    -0.570577151265E+02    0.32176E+00   -0.97939E-01 14560   0.104E+01    0.835E-01
DAV:   4    -0.570551557721E+02    0.25594E-02   -0.55340E-02 17304   0.247E+00    0.802E-01
DAV:   5    -0.570515225361E+02    0.36332E-02   -0.27990E-02 15416   0.257E+00    0.389E-01
DAV:   6    -0.570504265781E+02    0.10960E-02   -0.44212E-03 14848   0.961E-01    0.481E-02
DAV:   7    -0.570504887843E+02   -0.62206E-04   -0.65276E-04 16008   0.292E-01    0.875E-02
DAV:   8    -0.570504410865E+02    0.47698E-04   -0.19457E-04 14512   0.249E-01    0.197E-02
DAV:   9    -0.570504421673E+02   -0.10808E-05   -0.25699E-05 14088   0.435E-02    0.916E-03
DAV:  10    -0.570504420039E+02    0.16335E-06   -0.24793E-06 17432   0.162E-02    0.240E-03
DAV:  11    -0.570504417452E+02    0.25872E-06   -0.45149E-07 14016   0.807E-03    0.994E-04
DAV:  12    -0.570504416461E+02    0.99117E-07   -0.71480E-08 13176   0.331E-03    0.450E-04
DAV:  13    -0.570504416254E+02    0.20653E-07   -0.55563E-09  7216   0.861E-04    0.102E-04
DAV:  14    -0.570504416215E+02    0.39418E-08   -0.17797E-09  7056   0.217E-04
  25 F= -.57050442E+02 E0= -.57051206E+02  d E =-.334878E-02  mag=    -0.0000
       N       E                     dE             d eps       ncg     rms          rms(c)
DAV:   1    -0.570612170156E+02   -0.10775E-01   -0.10797E+00 14360   0.206E+01    0.205E+00
DAV:   2    -0.571940033957E+02   -0.13279E+00   -0.10769E+00 15080   0.986E+00    0.375E+00
DAV:   3    -0.570566032391E+02    0.13740E+00   -0.43910E-01 14520   0.666E+00    0.597E-01
DAV:   4    -0.570536998164E+02    0.29034E-02   -0.19182E-02 15160   0.128E+00    0.324E-01
DAV:   5    -0.570540297315E+02   -0.32992E-03   -0.99286E-03 15344   0.162E+00    0.377E-01
DAV:   6    -0.570529455127E+02    0.10842E-02   -0.29229E-03 14952   0.867E-01    0.301E-02
DAV:   7    -0.570529642362E+02   -0.18723E-04   -0.32144E-04 14144   0.128E-01    0.337E-02
DAV:   8    -0.570529607298E+02    0.35064E-05   -0.35593E-05 14312   0.916E-02    0.186E-02
DAV:   9    -0.570529597116E+02    0.10183E-05   -0.98517E-06 16224   0.420E-02    0.738E-03
DAV:  10    -0.570529604559E+02   -0.74430E-06   -0.15446E-06 14352   0.129E-02    0.119E-03
DAV:  11    -0.570529605927E+02   -0.13684E-06   -0.16059E-07 14936   0.382E-03    0.579E-04
DAV:  12    -0.570529606660E+02   -0.73289E-07   -0.13394E-08  7320   0.141E-03    0.167E-04
DAV:  13    -0.570529606802E+02   -0.14212E-07   -0.38612E-09  7080   0.606E-04    0.645E-05
DAV:  14    -0.570529606810E+02   -0.77853E-09   -0.10080E-09  6904   0.246E-04
  26 F= -.57052961E+02 E0= -.57053739E+02  d E =-.586784E-02  mag=     0.0000
       N       E                     dE             d eps       ncg     rms          rms(c)
DAV:   1    -0.570669924180E+02   -0.14032E-01   -0.39597E-01 14608   0.133E+01    0.169E+00
DAV:   2    -0.571731894426E+02   -0.10620E+00   -0.74510E-01 15104   0.837E+00    0.349E+00
DAV:   3    -0.570552320846E+02    0.11796E+00   -0.35968E-01 14512   0.610E+00    0.395E-01
DAV:   4    -0.570559957478E+02   -0.76366E-03   -0.17329E-02 17104   0.134E+00    0.394E-01
DAV:   5    -0.570548033102E+02    0.11924E-02   -0.31148E-03 15328   0.833E-01    0.115E-01
DAV:   6    -0.570547285045E+02    0.74806E-04   -0.63548E-04 15800   0.238E-01    0.498E-02
DAV:   7    -0.570547180476E+02    0.10457E-04   -0.11726E-04 14192   0.167E-01    0.247E-02
DAV:   8    -0.570547135154E+02    0.45322E-05   -0.51506E-05 14152   0.749E-02    0.169E-02
DAV:   9    -0.570547121940E+02    0.13214E-05   -0.47885E-06 15304   0.232E-02    0.421E-03
DAV:  10    -0.570547124017E+02   -0.20770E-06   -0.11532E-06 16760   0.834E-03    0.209E-03
DAV:  11    -0.570547125026E+02   -0.10084E-06   -0.13049E-07 13664   0.345E-03    0.491E-04
DAV:  12    -0.570547125435E+02   -0.40935E-07   -0.10097E-08  7224   0.102E-03    0.103E-04
DAV:  13    -0.570547125538E+02   -0.10301E-07   -0.24974E-09  7040   0.405E-04    0.421E-05
DAV:  14    -0.570547125553E+02   -0.14770E-08   -0.71074E-10  6896   0.186E-04
  27 F= -.57054713E+02 E0= -.57055495E+02  d E =-.175187E-02  mag=     0.0000
       N       E                     dE             d eps       ncg     rms          rms(c)
DAV:   1    -0.570724330792E+02   -0.17721E-01   -0.55094E-01 14608   0.157E+01    0.199E+00
DAV:   2    -0.572209686138E+02   -0.14854E+00   -0.10367E+00 15072   0.985E+00    0.414E+00
DAV:   3    -0.570561787065E+02    0.16479E+00   -0.50289E-01 14528   0.719E+00    0.477E-01
DAV:   4    -0.570572073775E+02   -0.10287E-02   -0.24513E-02 17056   0.159E+00    0.469E-01
DAV:   5    -0.570555155275E+02    0.16918E-02   -0.43909E-03 15320   0.976E-01    0.135E-01
DAV:   6    -0.570554176129E+02    0.97915E-04   -0.88431E-04 16456   0.287E-01    0.645E-02
DAV:   7    -0.570553981548E+02    0.19458E-04   -0.18027E-04 14192   0.211E-01    0.285E-02
DAV:   8    -0.570553920655E+02    0.60894E-05   -0.73057E-05 14112   0.867E-02    0.202E-02
DAV:   9    -0.570553900453E+02    0.20202E-05   -0.66897E-06 15304   0.274E-02    0.488E-03
DAV:  10    -0.570553902899E+02   -0.24458E-06   -0.15682E-06 16720   0.978E-03    0.245E-03
DAV:  11    -0.570553904006E+02   -0.11070E-06   -0.18169E-07 13752   0.408E-03    0.559E-04
DAV:  12    -0.570553904496E+02   -0.49029E-07   -0.13360E-08  7272   0.118E-03    0.125E-04
DAV:  13    -0.570553904606E+02   -0.11063E-07   -0.32571E-09  7104   0.479E-04    0.507E-05
DAV:  14    -0.570553904623E+02   -0.16807E-08   -0.96429E-10  6896   0.215E-04
  28 F= -.57055390E+02 E0= -.57056176E+02  d E =-.242978E-02  mag=     0.0000
       N       E                     dE             d eps       ncg     rms          rms(c)
DAV:   1    -0.570479631049E+02    0.74274E-02   -0.25028E-01 18888   0.126E+01    0.365E-01
DAV:   2    -0.570601504081E+02   -0.12187E-01   -0.11535E-01 14472   0.233E+00    0.624E-01
DAV:   3    -0.570564835307E+02    0.36669E-02   -0.14264E-02 14224   0.126E+00    0.117E-01
DAV:   4    -0.570564175234E+02    0.66007E-04   -0.68136E-04 18288   0.254E-01    0.831E-02
DAV:   5    -0.570564303818E+02   -0.12858E-04   -0.39453E-04 15816   0.371E-01    0.996E-02
DAV:   6    -0.570563488667E+02    0.81515E-04   -0.17598E-04 16568   0.241E-01    0.136E-02
DAV:   7    -0.570563513442E+02   -0.24774E-05   -0.37415E-05 17104   0.637E-02    0.169E-02
DAV:   8    -0.570563494083E+02    0.19359E-05   -0.78753E-06 14504   0.427E-02    0.327E-03
DAV:   9    -0.570563494316E+02   -0.23321E-07   -0.12239E-06 14096   0.105E-02    0.244E-03
DAV:  10    -0.570563493909E+02    0.40705E-07   -0.12259E-07 14976   0.373E-03    0.475E-04
DAV:  11    -0.570563493511E+02    0.39761E-07   -0.12332E-08  7216   0.968E-04    0.169E-04
DAV:  12    -0.570563493428E+02    0.83746E-08   -0.44248E-09  6920   0.677E-04
  29 F= -.57056349E+02 E0= -.57057124E+02  d E =-.958880E-03  mag=     0.0000
       N       E                     dE             d eps       ncg     rms          rms(c)
DAV:   1    -0.570010213231E+02    0.55328E-01   -0.16841E+00 18656   0.329E+01    0.951E-01
DAV:   2    -0.570834171740E+02   -0.82396E-01   -0.77783E-01 14536   0.605E+00    0.163E+00
DAV:   3    -0.570582857917E+02    0.25131E-01   -0.96631E-02 14296   0.331E+00    0.305E-01
DAV:   4    -0.570579356842E+02    0.35011E-03   -0.49781E-03 18848   0.731E-01    0.238E-01
DAV:   5    -0.570578513963E+02    0.84288E-04   -0.25312E-03 15744   0.932E-01    0.231E-01
DAV:   6    -0.570573984605E+02    0.45294E-03   -0.98043E-04 17400   0.541E-01    0.382E-02
DAV:   7    -0.570574133378E+02   -0.14877E-04   -0.24062E-04 16848   0.175E-01    0.451E-02
DAV:   8    -0.570573997301E+02    0.13608E-04   -0.56390E-05 14488   0.113E-01    0.788E-03
DAV:   9    -0.570574001901E+02   -0.45997E-06   -0.85172E-06 14056   0.255E-02    0.615E-03
DAV:  10    -0.570574000544E+02    0.13572E-06   -0.72261E-07 16520   0.861E-03    0.122E-03
DAV:  11    -0.570573999611E+02    0.93325E-07   -0.84986E-08 12872   0.208E-03    0.363E-04
DAV:  12    -0.570573999402E+02    0.20853E-07   -0.10442E-08  7240   0.120E-03    0.199E-04
DAV:  13    -0.570573999326E+02    0.75961E-08   -0.22831E-09  7112   0.471E-04
  30 F= -.57057400E+02 E0= -.57058117E+02  d E =-.200947E-02  mag=    -0.0000
       N       E                     dE             d eps       ncg     rms          rms(c)
DAV:   1    -0.570571771335E+02    0.22281E-03   -0.17950E-02 15832   0.292E+00    0.116E-01
DAV:   2    -0.570576650048E+02   -0.48787E-03   -0.64171E-03 13080   0.522E-01    0.808E-02
DAV:   3    -0.570576755877E+02   -0.10583E-04   -0.55312E-04 16760   0.328E-01    0.976E-02
DAV:   4    -0.570576112213E+02    0.64366E-04   -0.33244E-04 15424   0.311E-01    0.574E-02
DAV:   5    -0.570575873165E+02    0.23905E-04   -0.14068E-04 16424   0.169E-01    0.184E-02
DAV:   6    -0.570575848258E+02    0.24907E-05   -0.16859E-05 14512   0.491E-02    0.544E-03
DAV:   7    -0.570575848439E+02   -0.18117E-07   -0.24798E-06 15272   0.217E-02    0.463E-03
DAV:   8    -0.570575847191E+02    0.12479E-06   -0.59391E-07 14560   0.115E-02    0.134E-03
DAV:   9    -0.570575847419E+02   -0.22781E-07   -0.10513E-07 13144   0.222E-03    0.431E-04
DAV:  10    -0.570575847401E+02    0.18190E-08   -0.71986E-09  6992   0.956E-04
  31 F= -.57057585E+02 E0= -.57058297E+02  d E =-.184807E-03  mag=    -0.0000
       N       E                     dE             d eps       ncg     rms          rms(c)
DAV:   1    -0.570572733733E+02    0.31137E-03   -0.16307E-02 15872   0.279E+00    0.111E-01
DAV:   2    -0.570577164738E+02   -0.44310E-03   -0.58264E-03 13088   0.498E-01    0.774E-02
DAV:   3    -0.570577249117E+02   -0.84379E-05   -0.50232E-04 16768   0.312E-01    0.925E-02
DAV:   4    -0.570576676477E+02    0.57264E-04   -0.30153E-04 15408   0.297E-01    0.554E-02
DAV:   5    -0.570576452881E+02    0.22360E-04   -0.12872E-04 16440   0.163E-01    0.173E-02
DAV:   6    -0.570576431122E+02    0.21760E-05   -0.15192E-05 14520   0.464E-02    0.513E-03
DAV:   7    -0.570576431297E+02   -0.17553E-07   -0.22315E-06 15216   0.206E-02    0.441E-03
DAV:   8    -0.570576430150E+02    0.11476E-06   -0.53947E-07 14528   0.110E-02    0.127E-03
DAV:   9    -0.570576430373E+02   -0.22344E-07   -0.94562E-08 12864   0.208E-03    0.409E-04
DAV:  10    -0.570576430360E+02    0.13006E-08   -0.65602E-09  6968   0.919E-04
  32 F= -.57057643E+02 E0= -.57058349E+02  d E =-.243103E-03  mag=     0.0000
       N       E                     dE             d eps       ncg     rms          rms(c)
DAV:   1    -0.570573361422E+02    0.30690E-03   -0.11711E-02 16840   0.271E+00    0.105E-01
DAV:   2    -0.570580533440E+02   -0.71720E-03   -0.64755E-03 14840   0.612E-01    0.186E-01
DAV:   3    -0.570577303862E+02    0.32296E-03   -0.12222E-03 14256   0.389E-01    0.402E-02
DAV:   4    -0.570577320919E+02   -0.17057E-05   -0.12394E-04 17496   0.157E-01    0.423E-02
DAV:   5    -0.570577179322E+02    0.14160E-04   -0.37989E-05 15120   0.101E-01    0.132E-02
DAV:   6    -0.570577166483E+02    0.12839E-05   -0.10022E-05 15936   0.305E-02    0.674E-03
DAV:   7    -0.570577164847E+02    0.16357E-06   -0.20120E-06 14168   0.210E-02    0.334E-03
DAV:   8    -0.570577164273E+02    0.57425E-07   -0.66138E-07 14696   0.873E-03    0.139E-03
DAV:   9    -0.570577164292E+02   -0.19500E-08   -0.50846E-08 11704   0.231E-03
  33 F= -.57057716E+02 E0= -.57058414E+02  d E =-.733932E-04  mag=    -0.0000
       N       E                     dE             d eps       ncg     rms          rms(c)
DAV:   1    -0.570562750271E+02    0.14414E-02   -0.46081E-02 16864   0.537E+00    0.208E-01
DAV:   2    -0.570591038125E+02   -0.28288E-02   -0.25481E-02 14840   0.121E+00    0.370E-01
DAV:   3    -0.570578264235E+02    0.12774E-02   -0.48116E-03 14288   0.771E-01    0.797E-02
DAV:   4    -0.570578327296E+02   -0.63061E-05   -0.48645E-04 17528   0.311E-01    0.839E-02
DAV:   5    -0.570577769550E+02    0.55775E-04   -0.14974E-04 15128   0.199E-01    0.261E-02
DAV:   6    -0.570577715793E+02    0.53757E-05   -0.39229E-05 15728   0.610E-02    0.137E-02
DAV:   7    -0.570577708563E+02    0.72303E-06   -0.81572E-06 14112   0.428E-02    0.653E-03
DAV:   8    -0.570577705965E+02    0.25979E-06   -0.26001E-06 14792   0.171E-02    0.276E-03
DAV:   9    -0.570577705968E+02   -0.32196E-09   -0.19945E-07 15104   0.458E-03    0.107E-03
DAV:  10    -0.570577706175E+02   -0.20698E-07   -0.39289E-08  9936   0.165E-03    0.286E-04
DAV:  11    -0.570577706322E+02   -0.14717E-07   -0.49468E-09  7008   0.766E-04    0.731E-05
DAV:  12    -0.570577706392E+02   -0.69322E-08   -0.10855E-09  6816   0.251E-04
  34 F= -.57057771E+02 E0= -.57058449E+02  d E =-.127603E-03  mag=     0.0000
       N       E                     dE             d eps       ncg     rms          rms(c)
DAV:   1    -0.570595613747E+02   -0.17907E-02   -0.27290E-02 14136   0.303E+00    0.521E-01
DAV:   2    -0.570691411938E+02   -0.95798E-02   -0.65936E-02 14832   0.251E+00    0.106E+00
DAV:   3    -0.570578026029E+02    0.11339E-01   -0.33523E-02 14544   0.187E+00    0.924E-02
DAV:   4    -0.570579017040E+02   -0.99101E-04   -0.13911E-03 17424   0.359E-01    0.115E-01
DAV:   5    -0.570578061379E+02    0.95566E-04   -0.28498E-04 15472   0.264E-01    0.323E-02
DAV:   6    -0.570578002251E+02    0.59129E-05   -0.46285E-05 14536   0.601E-02    0.689E-03
DAV:   7    -0.570578001888E+02    0.36262E-07   -0.51853E-06 15648   0.312E-02    0.884E-03
DAV:   8    -0.570577995432E+02    0.64562E-06   -0.30426E-06 14400   0.268E-02    0.428E-03
DAV:   9    -0.570577993510E+02    0.19217E-06   -0.42277E-07 14656   0.725E-03    0.121E-03
DAV:  10    -0.570577992683E+02    0.82668E-07   -0.14895E-07 16240   0.292E-03    0.850E-04
DAV:  11    -0.570577992224E+02    0.45937E-07   -0.24213E-08  8648   0.152E-03    0.108E-04
DAV:  12    -0.570577992119E+02    0.10490E-07   -0.18850E-09  6840   0.318E-04    0.673E-05
DAV:  13    -0.570577992075E+02    0.44311E-08   -0.37701E-10  6712   0.157E-04
  35 F= -.57057799E+02 E0= -.57058465E+02  d E =-.285683E-04  mag=    -0.0000
       N       E                     dE             d eps       ncg     rms          rms(c)
DAV:   1    -0.570578815017E+02   -0.82290E-04   -0.12307E-03 14120   0.642E-01    0.110E-01
DAV:   2    -0.570583062569E+02   -0.42476E-03   -0.29605E-03 14912   0.532E-01    0.225E-01
DAV:   3    -0.570578010451E+02    0.50521E-03   -0.15137E-03 14520   0.394E-01    0.200E-02
DAV:   4    -0.570578056585E+02   -0.46134E-05   -0.62363E-05 17328   0.755E-02    0.246E-02
DAV:   5    -0.570578014741E+02    0.41844E-05   -0.13199E-05 15488   0.577E-02    0.673E-03
DAV:   6    -0.570578012922E+02    0.18188E-06   -0.20470E-06 14472   0.126E-02    0.151E-03
DAV:   7    -0.570578013222E+02   -0.29973E-07   -0.23474E-07 15664   0.676E-03    0.184E-03
DAV:   8    -0.570578013451E+02   -0.22901E-07   -0.13870E-07 14192   0.553E-03    0.889E-04
DAV:   9    -0.570578013610E+02   -0.15943E-07   -0.16897E-08  6952   0.151E-03    0.256E-04
DAV:  10    -0.570578013757E+02   -0.14616E-07   -0.67316E-09  6688   0.597E-04    0.175E-04
DAV:  11    -0.570578013838E+02   -0.81163E-08   -0.21523E-09  6616   0.454E-04
  36 F= -.57057801E+02 E0= -.57058470E+02  d E =-.307446E-04  mag=    -0.0000
       N       E                     dE             d eps       ncg     rms          rms(c)
DAV:   1    -0.570577783084E+02    0.23067E-04   -0.66088E-03 14120   0.171E+00    0.136E-01
DAV:   2    -0.570583757260E+02   -0.59742E-03   -0.51875E-03 15408   0.652E-01    0.234E-01
DAV:   3    -0.570578448523E+02    0.53087E-03   -0.17473E-03 14424   0.436E-01    0.481E-02
DAV:   4    -0.570578518098E+02   -0.69575E-05   -0.18911E-04 17552   0.196E-01    0.651E-02
DAV:   5    -0.570578194987E+02    0.32311E-04   -0.11752E-04 15864   0.180E-01    0.104E-02
DAV:   6    -0.570578193577E+02    0.14101E-06   -0.11063E-05 14632   0.296E-02    0.343E-03
DAV:   7    -0.570578193818E+02   -0.24123E-07   -0.10893E-06 15024   0.142E-02    0.311E-03
DAV:   8    -0.570578193291E+02    0.52753E-07   -0.32601E-07 14536   0.880E-03    0.128E-03
DAV:   9    -0.570578193390E+02   -0.99371E-08   -0.62986E-08 11376   0.247E-03
  37 F= -.57057819E+02 E0= -.57058485E+02  d E =-.179553E-04  mag=    -0.0000
       N       E                     dE             d eps       ncg     rms          rms(c)
DAV:   1    -0.570578173549E+02    0.19741E-05   -0.35395E-04 14120   0.395E-01    0.313E-02
DAV:   2    -0.570578485652E+02   -0.31210E-04   -0.27779E-04 15432   0.151E-01    0.540E-02
DAV:   3    -0.570578207582E+02    0.27807E-04   -0.93224E-05 14440   0.101E-01    0.111E-02
DAV:   4    -0.570578211767E+02   -0.41853E-06   -0.10103E-05 17568   0.454E-02    0.150E-02
DAV:   5    -0.570578194609E+02    0.17158E-05   -0.62698E-06 15872   0.412E-02    0.242E-03
DAV:   6    -0.570578194575E+02    0.33615E-08   -0.59074E-07 14608   0.683E-03    0.755E-04
DAV:   7    -0.570578194597E+02   -0.21646E-08   -0.56617E-08 11768   0.320E-03
  38 F= -.57057819E+02 E0= -.57058484E+02  d E =-.180759E-04  mag=    -0.0000
       N       E                     dE             d eps       ncg     rms          rms(c)
DAV:   1    -0.570577671636E+02    0.52294E-04   -0.19177E-03 15168   0.112E+00    0.619E-02
DAV:   2    -0.570579539433E+02   -0.18678E-03   -0.15235E-03 15416   0.327E-01    0.112E-01
DAV:   3    -0.570578271337E+02    0.12681E-03   -0.42876E-04 14256   0.220E-01    0.200E-02
DAV:   4    -0.570578271472E+02   -0.13453E-07   -0.25784E-05 18440   0.631E-02    0.195E-02
DAV:   5    -0.570578245633E+02    0.25839E-05   -0.93213E-06 14936   0.511E-02    0.815E-03
DAV:   6    -0.570578238911E+02    0.67221E-06   -0.24159E-06 14544   0.171E-02    0.204E-03
DAV:   7    -0.570578238767E+02    0.14357E-07   -0.37781E-07 15896   0.758E-03    0.183E-03
DAV:   8    -0.570578238224E+02    0.54342E-07   -0.17315E-07 14080   0.523E-03    0.891E-04
DAV:   9    -0.570578238203E+02    0.20918E-08   -0.18519E-08  7168   0.169E-03
  39 F= -.57057824E+02 E0= -.57058485E+02  d E =-.436056E-05  mag=    -0.0000
       N       E                     dE             d eps       ncg     rms          rms(c)
DAV:   1    -0.570578066946E+02    0.17128E-04   -0.59817E-04 15096   0.625E-01    0.347E-02
DAV:   2    -0.570578656117E+02   -0.58917E-04   -0.47639E-04 15440   0.183E-01    0.626E-02
DAV:   3    -0.570578256179E+02    0.39994E-04   -0.13412E-04 14256   0.123E-01    0.112E-02
DAV:   4    -0.570578255676E+02    0.50231E-07   -0.78850E-06 18496   0.346E-02    0.108E-02
DAV:   5    -0.570578247758E+02    0.79180E-06   -0.29176E-06 14952   0.287E-02    0.463E-03
DAV:   6    -0.570578245221E+02    0.25371E-06   -0.75768E-07 14472   0.981E-03    0.113E-03
DAV:   7    -0.570578245134E+02    0.87402E-08   -0.12019E-07 15152   0.426E-03    0.104E-03
DAV:   8    -0.570578244866E+02    0.26763E-07   -0.54467E-08 12240   0.297E-03    0.491E-04
DAV:   9    -0.570578244874E+02   -0.83310E-09   -0.56990E-09  6616   0.942E-04
  40 F= -.57057824E+02 E0= -.57058484E+02  d E =-.502774E-05  mag=     0.0000
