 running on   24 total cores
 distrk:  each k-point on   24 cores,    1 groups
 distr:  one band on    6 cores,    4 groups
 using from now: INCAR     
 vasp.5.4.4.18Apr17-6-g9f103f2a35 (build Jan 03 2018 06:08:52) complex          
  
 POSCAR found :  2 types and       6 ions
 scaLAPACK will be used
 WARNING: for PREC=h ENMAX is automatically increase by 25 %
        this was not the case for versions prior to vasp.4.4
 WARNING: for PREC=h ENMAX is automatically increase by 25 %
        this was not the case for versions prior to vasp.4.4
 LDA part: xc-table for Pade appr. of Perdew
 POSCAR, INCAR and KPOINTS ok, starting setup
 FFT: planning ...
 WAVECAR not read
 entering main loop
       N       E                     dE             d eps       ncg     rms          rms(c)
DAV:   1     0.109237877395E+04    0.10924E+04   -0.50697E+04 16216   0.208E+03
DAV:   2     0.370696978175E+02   -0.10553E+04   -0.10238E+04 14192   0.655E+02
DAV:   3    -0.371208478688E+02   -0.74191E+02   -0.67581E+02 15744   0.193E+02
DAV:   4    -0.397023737052E+02   -0.25815E+01   -0.25398E+01 15524   0.349E+01
DAV:   5    -0.397611888067E+02   -0.58815E-01   -0.58802E-01 16032   0.496E+00    0.224E+01
DAV:   6    -0.405607214998E+02   -0.79953E+00   -0.75439E+01 15772   0.967E+01    0.254E+01
DAV:   7    -0.362001195857E+02    0.43606E+01   -0.25017E+01 15852   0.800E+01    0.179E+01
DAV:   8    -0.341967255132E+02    0.20034E+01   -0.61699E+00 16908   0.403E+01    0.221E+00
DAV:   9    -0.343324331846E+02   -0.13571E+00   -0.93003E-01 16360   0.128E+01    0.443E+00
DAV:  10    -0.342552152357E+02    0.77218E-01   -0.25749E-01 15316   0.104E+01    0.145E+00
DAV:  11    -0.342389158933E+02    0.16299E-01   -0.52552E-02 16312   0.277E+00    0.389E-01
DAV:  12    -0.342399222462E+02   -0.10064E-02   -0.68597E-03 15752   0.814E-01    0.171E-01
DAV:  13    -0.342397564681E+02    0.16578E-03   -0.11167E-03 16028   0.365E-01    0.540E-02
DAV:  14    -0.342397720543E+02   -0.15586E-04   -0.99843E-05 15052   0.105E-01    0.275E-02
DAV:  15    -0.342397712076E+02    0.84678E-06   -0.12066E-05 17500   0.455E-02    0.164E-02
DAV:  16    -0.342397704851E+02    0.72242E-06   -0.50340E-06 17888   0.370E-02    0.505E-03
DAV:  17    -0.342397700942E+02    0.39094E-06   -0.82642E-07 15464   0.123E-02    0.155E-03
DAV:  18    -0.342397699808E+02    0.11337E-06   -0.11418E-07 15328   0.320E-03    0.728E-04
DAV:  19    -0.342397699273E+02    0.53515E-07   -0.16724E-08  9112   0.181E-03    0.257E-04
DAV:  20    -0.342397699106E+02    0.16749E-07   -0.32627E-09  7676   0.702E-04    0.172E-04
DAV:  21    -0.342397699144E+02   -0.38272E-08   -0.10235E-09  7624   0.439E-04
   1 F= -.34239770E+02 E0= -.34239929E+02  d E =-.342398E+02  mag=     0.6992
 curvature:   0.00 expect dE= 0.000E+00 dE for cont linesearch  0.000E+00
 trial: gam= 0.00000 g(F)=  0.473E-02 g(S)=  0.868E-01 ort = 0.000E+00 (trialstep = 0.100E+01)
 search vector abs. value=  0.916E-01
 bond charge predicted
       N       E                     dE             d eps       ncg     rms          rms(c)
DAV:   1    -0.422938149737E+02   -0.80540E+01   -0.78813E+01 14548   0.117E+02    0.280E+01
DAV:   2    -0.434205199674E+02   -0.11267E+01   -0.13185E+02 15480   0.104E+02    0.259E+01
DAV:   3    -0.370834895618E+02    0.63370E+01   -0.37569E+01 15476   0.736E+01    0.242E+01
DAV:   4    -0.344493541993E+02    0.26341E+01   -0.82253E+00 14800   0.398E+01    0.573E+00
DAV:   5    -0.343956495226E+02    0.53705E-01   -0.10567E+00 17288   0.156E+01    0.436E+00
DAV:   6    -0.342559091943E+02    0.13974E+00   -0.23224E-01 15216   0.760E+00    0.129E+00
DAV:   7    -0.342427552097E+02    0.13154E-01   -0.38719E-02 16348   0.201E+00    0.489E-01
DAV:   8    -0.342452238828E+02   -0.24687E-02   -0.40946E-03 15488   0.650E-01    0.509E-01
DAV:   9    -0.342463889652E+02   -0.11651E-02   -0.59282E-04 16176   0.199E-01    0.500E-01
DAV:  10    -0.342486247521E+02   -0.22358E-02   -0.71858E-03 17028   0.862E-01    0.135E-01
DAV:  11    -0.342490579787E+02   -0.43323E-03   -0.23301E-03 17432   0.401E-01    0.185E-01
DAV:  12    -0.342495383426E+02   -0.48036E-03   -0.11354E-03 15676   0.393E-01    0.275E-02
DAV:  13    -0.342495480459E+02   -0.97033E-05   -0.10267E-04 16304   0.847E-02    0.375E-02
DAV:  14    -0.342495606742E+02   -0.12628E-04   -0.83540E-06 14816   0.317E-02    0.183E-02
DAV:  15    -0.342495648088E+02   -0.41346E-05   -0.10377E-05 17776   0.329E-02    0.225E-03
DAV:  16    -0.342495652733E+02   -0.46452E-06   -0.75250E-07 14580   0.753E-03    0.936E-04
DAV:  17    -0.342495652586E+02    0.14683E-07   -0.51870E-08 13108   0.225E-03    0.705E-04
DAV:  18    -0.342495652570E+02    0.16225E-08   -0.44825E-09  7580   0.710E-04
   2 F= -.34249565E+02 E0= -.34249690E+02  d E =-.979534E-02  mag=     0.7476
 trial-energy change:   -0.009795  1 .order   -0.011705   -0.091566    0.068155
 step:   0.5556(harm=  0.5733)  dis= 0.00416  next Energy=   -34.264878 (dE=-0.251E-01)
 bond charge predicted
       N       E                     dE             d eps       ncg     rms          rms(c)
DAV:   1    -0.358230274723E+02   -0.15735E+01   -0.15496E+01 14720   0.510E+01    0.123E+01
DAV:   2    -0.359151009756E+02   -0.92074E-01   -0.19125E+01 15016   0.477E+01    0.112E+01
DAV:   3    -0.345168366763E+02    0.13983E+01   -0.59838E+00 15704   0.316E+01    0.748E+00
DAV:   4    -0.342861678455E+02    0.23067E+00   -0.11862E+00 15420   0.172E+01    0.148E+00
DAV:   5    -0.343062522539E+02   -0.20084E-01   -0.12912E-01 18008   0.660E+00    0.286E+00
DAV:   6    -0.342652036059E+02    0.41049E-01   -0.68608E-02 16316   0.553E+00    0.438E-01
DAV:   7    -0.342647260848E+02    0.47752E-03   -0.96469E-03 15364   0.871E-01    0.141E-01
DAV:   8    -0.342647549717E+02   -0.28887E-04   -0.51613E-04 16948   0.267E-01    0.597E-02
DAV:   9    -0.342647520874E+02    0.28843E-05   -0.10716E-04 15968   0.103E-01    0.232E-02
DAV:  10    -0.342647495940E+02    0.24934E-05   -0.15366E-05 15084   0.467E-02    0.114E-02
DAV:  11    -0.342647479767E+02    0.16173E-05   -0.23985E-06 17272   0.183E-02    0.357E-03
DAV:  12    -0.342647476130E+02    0.36366E-06   -0.53711E-07 14808   0.705E-03    0.121E-03
DAV:  13    -0.342647476153E+02   -0.22810E-08   -0.36422E-08 12728   0.248E-03
   3 F= -.34264748E+02 E0= -.34264889E+02  d E =-.249777E-01  mag=     0.7244
 curvature:  -0.29 expect dE=-0.668E-03 dE for cont linesearch -0.103E-08
 trial: gam= 0.02529 g(F)=  0.181E-02 g(S)=  0.520E-03 ort = 0.182E-04 (trialstep = 0.911E+00)
 search vector abs. value=  0.239E-02
 bond charge predicted
       N       E                     dE             d eps       ncg     rms          rms(c)
DAV:   1    -0.342325861128E+02    0.32162E-01   -0.88357E-01 19340   0.313E+01    0.673E-01
DAV:   2    -0.342707979055E+02   -0.38212E-01   -0.40431E-01 15000   0.502E+00    0.954E-01
DAV:   3    -0.342705374298E+02    0.26048E-03   -0.42799E-02 16768   0.358E+00    0.843E-01
DAV:   4    -0.342667348446E+02    0.38026E-02   -0.90851E-03 18100   0.183E+00    0.177E-01
DAV:   5    -0.342664907372E+02    0.24411E-03   -0.12081E-03 20108   0.531E-01    0.172E-01
DAV:   6    -0.342665349525E+02   -0.44215E-04   -0.92340E-04 16268   0.798E-01    0.200E-01
DAV:   7    -0.342663280419E+02    0.20691E-03   -0.27332E-04 15724   0.447E-01    0.194E-02
DAV:   8    -0.342663286545E+02   -0.61260E-06   -0.57468E-05 16872   0.636E-02    0.708E-03
DAV:   9    -0.342663287920E+02   -0.13752E-06   -0.29973E-06 15468   0.219E-02    0.331E-03
DAV:  10    -0.342663286681E+02    0.12386E-06   -0.19858E-07 18648   0.556E-03    0.140E-03
DAV:  11    -0.342663285747E+02    0.93391E-07   -0.53111E-08 14496   0.286E-03    0.527E-04
DAV:  12    -0.342663285625E+02    0.12227E-07   -0.38275E-09  7444   0.106E-03    0.131E-04
DAV:  13    -0.342663285572E+02    0.52933E-08   -0.17105E-09  7336   0.378E-04
   4 F= -.34266329E+02 E0= -.34266477E+02  d E =-.158094E-02  mag=     0.7184
 trial-energy change:   -0.001581  1 .order   -0.001578   -0.002126   -0.001030
 step:   1.7664(harm=  1.7664)  dis= 0.00842  next Energy=   -34.266809 (dE=-0.206E-02)
 bond charge predicted
       N       E                     dE             d eps       ncg     rms          rms(c)
DAV:   1    -0.342370411086E+02    0.29287E-01   -0.77805E-01 19280   0.294E+01    0.631E-01
DAV:   2    -0.342706678021E+02   -0.33627E-01   -0.35630E-01 14956   0.471E+00    0.884E-01
DAV:   3    -0.342705414619E+02    0.12634E-03   -0.37711E-02 16812   0.337E+00    0.791E-01
DAV:   4    -0.342671887431E+02    0.33527E-02   -0.80566E-03 17964   0.172E+00    0.167E-01
DAV:   5    -0.342670010598E+02    0.18768E-03   -0.11148E-03 20160   0.535E-01    0.178E-01
DAV:   6    -0.342669874066E+02    0.13653E-04   -0.82922E-04 16244   0.758E-01    0.173E-01
DAV:   7    -0.342668303245E+02    0.15708E-03   -0.21605E-04 15708   0.388E-01    0.181E-02
DAV:   8    -0.342668306471E+02   -0.32267E-06   -0.49046E-05 16940   0.595E-02    0.633E-03
DAV:   9    -0.342668307577E+02   -0.11057E-06   -0.25645E-06 15304   0.200E-02    0.306E-03
DAV:  10    -0.342668306367E+02    0.12102E-06   -0.16758E-07 18736   0.501E-03    0.133E-03
DAV:  11    -0.342668305488E+02    0.87835E-07   -0.42797E-08 13892   0.252E-03    0.485E-04
DAV:  12    -0.342668305355E+02    0.13384E-07   -0.32929E-09  7432   0.925E-04    0.123E-04
DAV:  13    -0.342668305325E+02    0.29904E-08   -0.15659E-09  7328   0.361E-04
   5 F= -.34266831E+02 E0= -.34266988E+02  d E =-.208292E-02  mag=     0.7127
 curvature:  -0.91 expect dE=-0.927E-04 dE for cont linesearch -0.486E-06
 trial: gam= 0.04019 g(F)=  0.227E-04 g(S)=  0.797E-04 ort = 0.358E-04 (trialstep = 0.108E+01)
 search vector abs. value=  0.109E-03
 bond charge predicted
       N       E                     dE             d eps       ncg     rms          rms(c)
DAV:   1    -0.342674718634E+02   -0.64133E-03   -0.42628E-02 15436   0.486E+00    0.415E-01
DAV:   2    -0.342690075454E+02   -0.15357E-02   -0.28869E-02 15592   0.201E+00    0.543E-01
DAV:   3    -0.342691974394E+02   -0.18989E-03   -0.14319E-02 15868   0.252E+00    0.664E-01
DAV:   4    -0.342669813187E+02    0.22161E-02   -0.49189E-03 16008   0.135E+00    0.983E-02
DAV:   5    -0.342672630369E+02   -0.28172E-03   -0.11746E-03 17076   0.713E-01    0.269E-01
DAV:   6    -0.342669054301E+02    0.35761E-03   -0.61512E-04 15816   0.616E-01    0.308E-02
DAV:   7    -0.342669022488E+02    0.31813E-05   -0.83195E-05 15092   0.797E-02    0.980E-03
DAV:   8    -0.342669026735E+02   -0.42468E-06   -0.45130E-06 16092   0.299E-02    0.510E-03
DAV:   9    -0.342669030987E+02   -0.42524E-06   -0.51672E-07 16472   0.112E-02    0.155E-03
DAV:  10    -0.342669032602E+02   -0.16151E-06   -0.80502E-08 14592   0.276E-03    0.952E-04
DAV:  11    -0.342669033036E+02   -0.43408E-07   -0.77834E-09  7532   0.173E-03    0.218E-04
DAV:  12    -0.342669033205E+02   -0.16895E-07   -0.44292E-09  7340   0.525E-04    0.115E-04
DAV:  13    -0.342669033218E+02   -0.12988E-08   -0.78223E-10  7264   0.346E-04
   6 F= -.34266903E+02 E0= -.34267057E+02  d E =-.727893E-04  mag=     0.7153
 trial-energy change:   -0.000073  1 .order   -0.000076   -0.000112   -0.000039
 step:   1.6680(harm=  1.6680)  dis= 0.00094  next Energy=   -34.266917 (dE=-0.866E-04)
 bond charge predicted
       N       E                     dE             d eps       ncg     rms          rms(c)
DAV:   1    -0.342670781749E+02   -0.17485E-03   -0.12470E-02 15380   0.263E+00    0.225E-01
DAV:   2    -0.342675255651E+02   -0.44739E-03   -0.84609E-03 15596   0.109E+00    0.294E-01
DAV:   3    -0.342675827336E+02   -0.57168E-04   -0.41812E-03 15876   0.134E+00    0.359E-01
DAV:   4    -0.342669339059E+02    0.64883E-03   -0.14378E-03 16000   0.749E-01    0.516E-02
DAV:   5    -0.342670121397E+02   -0.78234E-04   -0.33148E-04 17172   0.373E-01    0.143E-01
DAV:   6    -0.342669130564E+02    0.99083E-04   -0.17536E-04 15864   0.328E-01    0.169E-02
DAV:   7    -0.342669120549E+02    0.10015E-05   -0.23682E-05 15088   0.430E-02    0.515E-03
DAV:   8    -0.342669123425E+02   -0.28760E-06   -0.12846E-06 16248   0.155E-02    0.274E-03
DAV:   9    -0.342669125617E+02   -0.21916E-06   -0.14748E-07 16564   0.596E-03    0.821E-04
DAV:  10    -0.342669126408E+02   -0.79108E-07   -0.20881E-08  9112   0.150E-03    0.489E-04
DAV:  11    -0.342669126643E+02   -0.23578E-07   -0.35306E-09  7396   0.100E-03    0.121E-04
DAV:  12    -0.342669126723E+02   -0.79672E-08   -0.15553E-09  7260   0.338E-04
   7 F= -.34266913E+02 E0= -.34267064E+02  d E =-.821399E-04  mag=     0.7166
 curvature:  -0.88 expect dE=-0.560E-04 dE for cont linesearch -0.720E-08
 trial: gam= 0.63146 g(F)=  0.174E-05 g(S)=  0.621E-04 ort = 0.947E-06 (trialstep = 0.120E+01)
 search vector abs. value=  0.109E-03
 bond charge predicted
       N       E                     dE             d eps       ncg     rms          rms(c)
DAV:   1    -0.342698058512E+02   -0.28932E-02   -0.58246E-02 15164   0.401E+00    0.575E-01
DAV:   2    -0.342699582970E+02   -0.15245E-03   -0.40088E-02 15056   0.225E+00    0.480E-01
DAV:   3    -0.342679855020E+02    0.19728E-02   -0.11316E-02 15520   0.175E+00    0.469E-01
DAV:   4    -0.342671389873E+02    0.84651E-03   -0.39803E-03 15044   0.134E+00    0.142E-01
DAV:   5    -0.342670412112E+02    0.97776E-04   -0.58911E-04 18548   0.374E-01    0.137E-01
DAV:   6    -0.342669576553E+02    0.83556E-04   -0.21730E-04 15680   0.311E-01    0.309E-02
DAV:   7    -0.342669508571E+02    0.67982E-05   -0.41659E-05 15164   0.734E-02    0.865E-03
DAV:   8    -0.342669497746E+02    0.10825E-05   -0.25784E-06 15492   0.209E-02    0.356E-03
DAV:   9    -0.342669495809E+02    0.19366E-06   -0.33651E-07 15720   0.676E-03    0.127E-03
DAV:  10    -0.342669494893E+02    0.91557E-07   -0.18837E-08  9212   0.193E-03    0.596E-04
DAV:  11    -0.342669494602E+02    0.29126E-07   -0.81830E-09  7444   0.128E-03    0.158E-04
DAV:  12    -0.342669494509E+02    0.93532E-08   -0.28860E-09  7364   0.465E-04
   8 F= -.34266949E+02 E0= -.34267099E+02  d E =-.367785E-04  mag=     0.7173
 trial-energy change:   -0.000037  1 .order   -0.000032   -0.000077    0.000014
 step:   1.0557(harm=  1.0121)  dis= 0.00042  next Energy=   -34.266950 (dE=-0.376E-04)
 bond charge predicted
       N       E                     dE             d eps       ncg     rms          rms(c)
DAV:   1    -0.342669913508E+02   -0.41891E-04   -0.83734E-04 15164   0.480E-01    0.689E-02
DAV:   2    -0.342669915056E+02   -0.15481E-06   -0.57711E-04 15072   0.270E-01    0.577E-02
DAV:   3    -0.342669645788E+02    0.26927E-04   -0.16348E-04 15508   0.212E-01    0.569E-02
DAV:   4    -0.342669520892E+02    0.12490E-04   -0.57400E-05 15000   0.162E-01    0.168E-02
DAV:   5    -0.342669508432E+02    0.12460E-05   -0.82017E-06 18552   0.438E-02    0.157E-02
DAV:   6    -0.342669497673E+02    0.10758E-05   -0.29707E-06 15580   0.358E-02    0.379E-03
DAV:   7    -0.342669497390E+02    0.28333E-07   -0.59056E-07 15168   0.899E-03    0.103E-03
DAV:   8    -0.342669498397E+02   -0.10067E-06   -0.37412E-08 13084   0.248E-03    0.428E-04
DAV:   9    -0.342669498736E+02   -0.33939E-07   -0.48023E-09  7304   0.872E-04    0.152E-04
DAV:  10    -0.342669498868E+02   -0.13191E-07   -0.77930E-10  7276   0.314E-04    0.672E-05
DAV:  11    -0.342669498884E+02   -0.15571E-08   -0.25610E-10  7240   0.192E-04
   9 F= -.34266950E+02 E0= -.34267099E+02  d E =-.372161E-04  mag=     0.7172
 curvature:  -0.81 expect dE=-0.129E-04 dE for cont linesearch -0.417E-07
 trial: gam= 0.29894 g(F)=  0.363E-05 g(S)=  0.124E-04 ort =-0.237E-05 (trialstep = 0.117E+01)
 search vector abs. value=  0.243E-04
 bond charge predicted
       N       E                     dE             d eps       ncg     rms          rms(c)
DAV:   1    -0.342671699226E+02   -0.22004E-03   -0.87854E-03 17280   0.136E+00    0.159E-01
DAV:   2    -0.342670953790E+02    0.74544E-04   -0.20480E-03 15000   0.551E-01    0.118E-01
DAV:   3    -0.342672195287E+02   -0.12415E-03   -0.97158E-04 16392   0.661E-01    0.221E-01
DAV:   4    -0.342669894923E+02    0.23004E-03   -0.66648E-04 16324   0.529E-01    0.522E-02
DAV:   5    -0.342669717715E+02    0.17721E-04   -0.93807E-05 19084   0.145E-01    0.493E-02
DAV:   6    -0.342669611362E+02    0.10635E-04   -0.30477E-05 15692   0.126E-01    0.991E-03
DAV:   7    -0.342669605408E+02    0.59540E-06   -0.53023E-06 14964   0.294E-02    0.278E-03
DAV:   8    -0.342669606506E+02   -0.10981E-06   -0.45778E-07 15432   0.748E-03    0.131E-03
DAV:   9    -0.342669607261E+02   -0.75433E-07   -0.37917E-08 13348   0.231E-03    0.563E-04
DAV:  10    -0.342669607495E+02   -0.23410E-07   -0.75923E-09  7416   0.104E-03    0.215E-04
DAV:  11    -0.342669607546E+02   -0.51259E-08   -0.16427E-09  7336   0.433E-04
  10 F= -.34266961E+02 E0= -.34267111E+02  d E =-.108662E-04  mag=     0.7174
 trial-energy change:   -0.000011  1 .order   -0.000011   -0.000018   -0.000005
 step:   2.0173(harm=  1.6191)  dis= 0.00026  next Energy=   -34.266962 (dE=-0.124E-04)
 bond charge predicted
       N       E                     dE             d eps       ncg     rms          rms(c)
DAV:   1    -0.342670608021E+02   -0.10005E-03   -0.45952E-03 17280   0.987E-01    0.115E-01
DAV:   2    -0.342670214443E+02    0.39358E-04   -0.10704E-03 15000   0.398E-01    0.856E-02
DAV:   3    -0.342670866349E+02   -0.65191E-04   -0.50789E-04 16384   0.479E-01    0.160E-01
DAV:   4    -0.342669664746E+02    0.12016E-03   -0.34773E-04 16320   0.381E-01    0.378E-02
DAV:   5    -0.342669574287E+02    0.90459E-05   -0.49529E-05 19084   0.106E-01    0.365E-02
DAV:   6    -0.342669515748E+02    0.58539E-05   -0.16403E-05 15708   0.926E-02    0.711E-03
DAV:   7    -0.342669512847E+02    0.29017E-06   -0.28194E-06 14964   0.212E-02    0.201E-03
DAV:   8    -0.342669513712E+02   -0.86577E-07   -0.23910E-07 15404   0.539E-03    0.953E-04
DAV:   9    -0.342669514230E+02   -0.51747E-07   -0.17003E-08  8304   0.167E-03    0.403E-04
DAV:  10    -0.342669514385E+02   -0.15567E-07   -0.60269E-09  7376   0.853E-04    0.150E-04
DAV:  11    -0.342669514429E+02   -0.43765E-08   -0.15847E-09  7300   0.352E-04
  11 F= -.34266951E+02 E0= -.34267103E+02  d E =-.155456E-05  mag=     0.7176
 curvature:  -0.27 expect dE=-0.286E-06 dE for cont linesearch -0.143E-06
 trial: gam= 0.00000 g(F)=  0.334E-06 g(S)=  0.719E-06 ort =-0.358E-05 (trialstep = 0.134E+01)
 search vector abs. value=  0.105E-05
 reached required accuracy - stopping structural energy minimisation
 writing wavefunctions
