       N       E                     dE             d eps       ncg     rms          rms(c)
DAV:   1    -0.549288680522E+02   -0.54929E+02   -0.34667E-01 10080   0.543E+00    0.243E-01
DAV:   2    -0.549345688757E+02   -0.57008E-02   -0.16195E-02 12624   0.157E+00    0.734E-01
DAV:   3    -0.549288227076E+02    0.57462E-02   -0.13306E-02 11808   0.161E+00    0.242E-01
DAV:   4    -0.549288641841E+02   -0.41476E-04   -0.13557E-03 12544   0.411E-01    0.403E-02
DAV:   5    -0.549289318943E+02   -0.67710E-04   -0.17500E-04 13488   0.235E-01    0.807E-02
DAV:   6    -0.549288651992E+02    0.66695E-04   -0.96546E-05 11600   0.214E-01    0.162E-02
DAV:   7    -0.549288740042E+02   -0.88051E-05   -0.14167E-05 11184   0.315E-02    0.462E-03
DAV:   8    -0.549288783553E+02   -0.43511E-05   -0.99213E-07 12976   0.997E-03    0.176E-03
DAV:   9    -0.549288783613E+02   -0.60063E-08   -0.18607E-07 11008   0.581E-03    0.481E-04
DAV:  10    -0.549288773443E+02    0.10171E-05   -0.22186E-08  7024   0.154E-03    0.282E-04
DAV:  11    -0.549288776994E+02   -0.35519E-06   -0.26372E-09  5408   0.659E-04    0.456E-05
DAV:  12    -0.549288776499E+02    0.49513E-07   -0.81608E-10  5328   0.168E-04    0.211E-05
DAV:  13    -0.549288776307E+02    0.19209E-07   -0.17248E-10  5264   0.104E-04    0.964E-06
DAV:  14    -0.549288776161E+02    0.14585E-07   -0.49994E-11  5200   0.519E-05    0.634E-06
DAV:  15    -0.549288776318E+02   -0.15621E-07   -0.17610E-11  5168   0.350E-05    0.219E-06
DAV:  16    -0.549288776290E+02    0.27503E-08   -0.68962E-12  5152   0.207E-05
   1 F= -.54928878E+02 E0= -.54928878E+02  d E =0.000000E+00  mag=    -0.0000
