 running on   24 total cores
 distrk:  each k-point on   24 cores,    1 groups
 distr:  one band on    6 cores,    4 groups
 using from now: INCAR     
 vasp.5.4.4.18Apr17-6-g9f103f2a35 (build Jan 03 2018 06:08:52) complex          
  
 POSCAR found :  2 types and      10 ions
 scaLAPACK will be used
 WARNING: for PREC=h ENMAX is automatically increase by 25 %
        this was not the case for versions prior to vasp.4.4
 WARNING: for PREC=h ENMAX is automatically increase by 25 %
        this was not the case for versions prior to vasp.4.4
 LDA part: xc-table for Pade appr. of Perdew
 POSCAR, INCAR and KPOINTS ok, starting setup
 FFT: planning ...
 WAVECAR not read
 entering main loop
       N       E                     dE             d eps       ncg     rms          rms(c)
DAV:   1     0.137064030649E+04    0.13706E+04   -0.62757E+04 11984   0.178E+03
DAV:   2     0.451138119142E+02   -0.13255E+04   -0.12670E+04 10152   0.576E+02
DAV:   3    -0.580888077294E+02   -0.10320E+03   -0.94377E+02 11448   0.178E+02
DAV:   4    -0.617979665538E+02   -0.37092E+01   -0.36792E+01 11408   0.328E+01
DAV:   5    -0.618843834034E+02   -0.86417E-01   -0.86397E-01 11288   0.492E+00    0.320E+01
DAV:   6    -0.740331546629E+02   -0.12149E+02   -0.15047E+02 11592   0.118E+02    0.398E+01
DAV:   7    -0.534557642182E+02    0.20577E+02   -0.57572E+01 11352   0.740E+01    0.544E+00
DAV:   8    -0.542100352664E+02   -0.75427E+00   -0.34685E+00 13544   0.240E+01    0.739E+00
DAV:   9    -0.540024675996E+02    0.20757E+00   -0.15237E+00 11856   0.171E+01    0.355E+00
DAV:  10    -0.540038955538E+02   -0.14280E-02   -0.45254E-01 12752   0.803E+00    0.171E+00
DAV:  11    -0.540155848329E+02   -0.11689E-01   -0.13434E-01 11976   0.650E+00    0.143E+00
DAV:  12    -0.540064048283E+02    0.91800E-02   -0.44607E-02 12456   0.338E+00    0.565E-01
DAV:  13    -0.540057789362E+02    0.62589E-03   -0.97176E-03 11848   0.888E-01    0.120E-01
DAV:  14    -0.540058188943E+02   -0.39958E-04   -0.59307E-04 11392   0.178E-01    0.558E-02
DAV:  15    -0.540057945886E+02    0.24306E-04   -0.55275E-05 13560   0.589E-02    0.166E-02
DAV:  16    -0.540057985548E+02   -0.39662E-05   -0.11285E-05 11496   0.263E-02    0.606E-03
DAV:  17    -0.540057984567E+02    0.98040E-07   -0.10316E-06 12080   0.813E-03    0.222E-03
DAV:  18    -0.540057980784E+02    0.37827E-06   -0.19697E-07 11528   0.302E-03    0.101E-03
DAV:  19    -0.540057979671E+02    0.11134E-06   -0.47007E-08  9864   0.191E-03    0.396E-04
DAV:  20    -0.540057979283E+02    0.38839E-07   -0.28358E-09  6008   0.484E-04    0.132E-04
DAV:  21    -0.540057978994E+02    0.28816E-07   -0.88755E-10  5864   0.214E-04    0.542E-05
DAV:  22    -0.540057978936E+02    0.58862E-08   -0.23626E-10  5792   0.120E-04
   1 F= -.54005798E+02 E0= -.54005595E+02  d E =-.540058E+02  mag=     0.0000
 curvature:   0.00 expect dE= 0.000E+00 dE for cont linesearch  0.000E+00
 trial: gam= 0.00000 g(F)=  0.255E+00 g(S)=  0.213E+01 ort = 0.000E+00 (trialstep = 0.100E+01)
 search vector abs. value=  0.239E+01
 bond charge predicted
       N       E                     dE             d eps       ncg     rms          rms(c)
DAV:   1    -0.174221097451E+03   -0.12022E+03   -0.13168E+03 10272   0.390E+02    0.899E+01
DAV:   2    -0.125310763936E+03    0.48910E+02   -0.94939E+02 11872   0.234E+02    0.717E+01
DAV:   3    -0.674358834826E+02    0.57875E+02   -0.33831E+02 11776   0.158E+02    0.359E+01
DAV:   4    -0.557074486744E+02    0.11728E+02   -0.50428E+01 11528   0.726E+01    0.125E+01
DAV:   5    -0.554299871139E+02    0.27746E+00   -0.85571E+00 12144   0.326E+01    0.818E+00
DAV:   6    -0.546521909737E+02    0.77780E+00   -0.34250E+00 11984   0.210E+01    0.547E+00
DAV:   7    -0.545755534857E+02    0.76637E-01   -0.93049E-01 11400   0.137E+01    0.419E+00
DAV:   8    -0.544022732434E+02    0.17328E+00   -0.32434E-01 11600   0.624E+00    0.644E-01
DAV:   9    -0.544016331108E+02    0.64013E-03   -0.38043E-02 11648   0.144E+00    0.218E-01
DAV:  10    -0.544016695510E+02   -0.36440E-04   -0.50323E-03 10864   0.639E-01    0.149E-01
DAV:  11    -0.544014773087E+02    0.19224E-03   -0.10134E-03 11376   0.294E-01    0.441E-02
DAV:  12    -0.544014737519E+02    0.35568E-05   -0.91353E-05 11216   0.866E-02    0.110E-02
DAV:  13    -0.544014743045E+02   -0.55259E-06   -0.13265E-05 11296   0.340E-02    0.741E-03
DAV:  14    -0.544014741626E+02    0.14192E-06   -0.19343E-06 11448   0.133E-02    0.126E-03
DAV:  15    -0.544014741287E+02    0.33826E-07   -0.94097E-08 10816   0.302E-03    0.808E-04
DAV:  16    -0.544014740936E+02    0.35147E-07   -0.16854E-08  6072   0.121E-03    0.141E-04
DAV:  17    -0.544014740786E+02    0.15007E-07   -0.35302E-09  5672   0.392E-04    0.785E-05
DAV:  18    -0.544014740753E+02    0.32996E-08   -0.11197E-09  5536   0.349E-04
   2 F= -.54401474E+02 E0= -.54401661E+02  d E =-.395676E+00  mag=    -0.0000
 trial-energy change:   -0.395676  1 .order   -0.503071   -2.387796    1.381654
 step:   0.5922(harm=  0.6335)  dis= 0.04187  next Energy=   -54.690494 (dE=-0.685E+00)
 bond charge predicted
       N       E                     dE             d eps       ncg     rms          rms(c)
DAV:   1    -0.806930109454E+02   -0.26292E+02   -0.22631E+02 10912   0.145E+02    0.526E+01
DAV:   2    -0.107881859754E+03   -0.27189E+02   -0.39209E+02 11088   0.190E+02    0.549E+01
DAV:   3    -0.551711490401E+02    0.52711E+02   -0.14077E+02 11168   0.110E+02    0.586E+00
DAV:   4    -0.549400760212E+02    0.23107E+00   -0.55879E+00 11952   0.140E+01    0.564E+00
DAV:   5    -0.551624788699E+02   -0.22240E+00   -0.17593E+00 11824   0.204E+01    0.836E+00
DAV:   6    -0.547075120705E+02    0.45497E+00   -0.13399E+00 11712   0.159E+01    0.191E+00
DAV:   7    -0.547007162986E+02    0.67958E-02   -0.19964E-01 12784   0.582E+00    0.159E+00
DAV:   8    -0.546779130991E+02    0.22803E-01   -0.78033E-02 11632   0.317E+00    0.293E-01
DAV:   9    -0.546787336720E+02   -0.82057E-03   -0.11810E-02 11272   0.714E-01    0.382E-01
DAV:  10    -0.546767284362E+02    0.20052E-02   -0.36363E-03 12304   0.501E-01    0.408E-02
DAV:  11    -0.546767186977E+02    0.97385E-05   -0.30753E-04 11176   0.100E-01    0.146E-02
DAV:  12    -0.546767167795E+02    0.19182E-05   -0.18702E-05 11088   0.370E-02    0.543E-03
DAV:  13    -0.546767162116E+02    0.56788E-06   -0.50124E-06 11368   0.201E-02    0.703E-03
DAV:  14    -0.546767154524E+02    0.75924E-06   -0.21914E-06 11264   0.138E-02    0.174E-03
DAV:  15    -0.546767154987E+02   -0.46351E-07   -0.89529E-08 10256   0.266E-03    0.316E-04
DAV:  16    -0.546767155099E+02   -0.11234E-07   -0.70431E-09  5696   0.728E-04    0.123E-04
DAV:  17    -0.546767155060E+02    0.38963E-08   -0.26620E-09  5520   0.501E-04
   3 F= -.54676716E+02 E0= -.54676927E+02  d E =-.670918E+00  mag=    -0.0000
 curvature:  -0.31 expect dE=-0.491E-01 dE for cont linesearch -0.266E-04
 trial: gam= 0.07176 g(F)=  0.808E-01 g(S)=  0.763E-01 ort =-0.142E-01 (trialstep = 0.918E+00)
 search vector abs. value=  0.167E+00
 bond charge predicted
       N       E                     dE             d eps       ncg     rms          rms(c)
DAV:   1    -0.544205910851E+02    0.25612E+00   -0.22027E+01 11728   0.107E+02    0.700E+00
DAV:   2    -0.553980000323E+02   -0.97741E+00   -0.12396E+01 12016   0.272E+01    0.692E+00
DAV:   3    -0.548858207600E+02    0.51218E+00   -0.22164E+00 11360   0.152E+01    0.293E+00
DAV:   4    -0.549217169123E+02   -0.35896E-01   -0.53025E-01 12480   0.116E+01    0.410E+00
DAV:   5    -0.547900692537E+02    0.13165E+00   -0.29930E-01 11704   0.960E+00    0.586E-01
DAV:   6    -0.547971277912E+02   -0.70585E-02   -0.54296E-02 13464   0.361E+00    0.109E+00
DAV:   7    -0.547891863679E+02    0.79414E-02   -0.20481E-02 11464   0.259E+00    0.127E-01
DAV:   8    -0.547892965908E+02   -0.11022E-03   -0.25440E-03 11184   0.399E-01    0.701E-02
DAV:   9    -0.547893128541E+02   -0.16263E-04   -0.21780E-04 12808   0.131E-01    0.372E-02
DAV:  10    -0.547893073725E+02    0.54816E-05   -0.52189E-05 11392   0.871E-02    0.585E-03
DAV:  11    -0.547893061639E+02    0.12086E-05   -0.42096E-06 12024   0.209E-02    0.436E-03
DAV:  12    -0.547893056116E+02    0.55228E-06   -0.97170E-07 11376   0.102E-02    0.966E-04
DAV:  13    -0.547893055593E+02    0.52300E-07   -0.59215E-08 10416   0.280E-03    0.445E-04
DAV:  14    -0.547893055064E+02    0.52849E-07   -0.80250E-09  5760   0.115E-03    0.177E-04
DAV:  15    -0.547893055033E+02    0.31469E-08   -0.28783E-09  5440   0.639E-04
   4 F= -.54789306E+02 E0= -.54789239E+02  d E =-.112590E+00  mag=    -0.0000
 trial-energy change:   -0.112590  1 .order   -0.114186   -0.143350   -0.085022
 step:   2.2572(harm=  2.2572)  dis= 0.09210  next Energy=   -54.852866 (dE=-0.176E+00)
 bond charge predicted
       N       E                     dE             d eps       ncg     rms          rms(c)
DAV:   1    -0.541658126514E+02    0.62349E+00   -0.47884E+01 11728   0.153E+02    0.105E+01
DAV:   2    -0.562334155282E+02   -0.20676E+01   -0.26641E+01 12032   0.404E+01    0.104E+01
DAV:   3    -0.550421640061E+02    0.11913E+01   -0.49991E+00 11344   0.229E+01    0.413E+00
DAV:   4    -0.551295727845E+02   -0.87409E-01   -0.12245E+00 12752   0.151E+01    0.587E+00
DAV:   5    -0.548454244216E+02    0.28415E+00   -0.56038E-01 11888   0.131E+01    0.802E-01
DAV:   6    -0.548450391311E+02    0.38529E-03   -0.80934E-02 12336   0.236E+00    0.427E-01
DAV:   7    -0.548454683858E+02   -0.42925E-03   -0.13659E-02 11616   0.192E+00    0.410E-01
DAV:   8    -0.548444749933E+02    0.99339E-03   -0.32042E-03 11632   0.105E+00    0.904E-02
DAV:   9    -0.548445281587E+02   -0.53165E-04   -0.55614E-04 12736   0.187E-01    0.370E-02
DAV:  10    -0.548445274503E+02    0.70843E-06   -0.86803E-05 11544   0.115E-01    0.144E-02
DAV:  11    -0.548445246446E+02    0.28057E-05   -0.11951E-05 11712   0.376E-02    0.557E-03
DAV:  12    -0.548445243574E+02    0.28721E-06   -0.12889E-06 12128   0.145E-02    0.172E-03
DAV:  13    -0.548445242726E+02    0.84758E-07   -0.15473E-07 10000   0.464E-03    0.657E-04
DAV:  14    -0.548445242429E+02    0.29726E-07   -0.18623E-08  6448   0.144E-03    0.103E-04
DAV:  15    -0.548445242391E+02    0.37835E-08   -0.33466E-09  5536   0.364E-04
   5 F= -.54844524E+02 E0= -.54844259E+02  d E =-.167809E+00  mag=    -0.0000
 curvature:  -1.21 expect dE=-0.326E-01 dE for cont linesearch -0.831E-03
 ZBRENT: interpolating
 opt :   2.1182  next Energy=   -54.845269 (dE=-0.169E+00)
 bond charge predicted
       N       E                     dE             d eps       ncg     rms          rms(c)
DAV:   1    -0.548365969321E+02    0.79273E-02   -0.50668E-01 11568   0.155E+01    0.111E+00
DAV:   2    -0.548613173430E+02   -0.24720E-01   -0.31981E-01 12016   0.433E+00    0.114E+00
DAV:   3    -0.548482332082E+02    0.13084E-01   -0.57911E-02 11344   0.247E+00    0.577E-01
DAV:   4    -0.548490252483E+02   -0.79204E-03   -0.19002E-02 11568   0.193E+00    0.676E-01
DAV:   5    -0.548454253282E+02    0.35999E-02   -0.67249E-03 12768   0.122E+00    0.978E-02
DAV:   6    -0.548457177233E+02   -0.29240E-03   -0.17416E-03 13488   0.732E-01    0.227E-01
DAV:   7    -0.548453623771E+02    0.35535E-03   -0.84627E-04 11744   0.603E-01    0.322E-02
DAV:   8    -0.548453636553E+02   -0.12782E-05   -0.89664E-05 11552   0.823E-02    0.123E-02
DAV:   9    -0.548453651216E+02   -0.14663E-05   -0.75800E-06 13312   0.258E-02    0.527E-03
DAV:  10    -0.548453653326E+02   -0.21104E-06   -0.18305E-06 11360   0.192E-02    0.174E-03
DAV:  11    -0.548453653688E+02   -0.36231E-07   -0.15982E-07 11408   0.564E-03    0.643E-04
DAV:  12    -0.548453654123E+02   -0.43499E-07   -0.14725E-08  5888   0.154E-03    0.128E-04
DAV:  13    -0.548453654248E+02   -0.12431E-07   -0.52848E-09  5280   0.524E-04    0.105E-04
DAV:  14    -0.548453654266E+02   -0.18117E-08   -0.12613E-09  5216   0.249E-04
   6 F= -.54845365E+02 E0= -.54845225E+02  d E =-.168650E+00  mag=    -0.0000
 curvature:  -1.08 expect dE=-0.226E-01 dE for cont linesearch -0.326E-05
 trial: gam= 0.19345 g(F)=  0.804E-02 g(S)=  0.128E-01 ort =-0.709E-03 (trialstep = 0.116E+01)
 search vector abs. value=  0.269E-01
 bond charge predicted
       N       E                     dE             d eps       ncg     rms          rms(c)
DAV:   1    -0.549420648051E+02   -0.96699E-01   -0.12762E+01 11840   0.819E+01    0.747E+00
DAV:   2    -0.558743792883E+02   -0.93231E+00   -0.11834E+01 11600   0.290E+01    0.909E+00
DAV:   3    -0.549092837447E+02    0.96510E+00   -0.32262E+00 11328   0.172E+01    0.232E+00
DAV:   4    -0.549167104817E+02   -0.74267E-02   -0.26269E-01 13264   0.796E+00    0.284E+00
DAV:   5    -0.548639382334E+02    0.52772E-01   -0.16244E-01 11936   0.534E+00    0.774E-01
DAV:   6    -0.548740087722E+02   -0.10071E-01   -0.55573E-02 12976   0.459E+00    0.141E+00
DAV:   7    -0.548595420299E+02    0.14467E-01   -0.26106E-02 11840   0.314E+00    0.139E-01
DAV:   8    -0.548595725361E+02   -0.30506E-04   -0.31298E-03 11056   0.376E-01    0.714E-02
DAV:   9    -0.548595392388E+02    0.33297E-04   -0.20280E-04 13312   0.149E-01    0.356E-02
DAV:  10    -0.548595371409E+02    0.20979E-05   -0.41793E-05 11584   0.941E-02    0.997E-03
DAV:  11    -0.548595378232E+02   -0.68225E-06   -0.65635E-06 12160   0.311E-02    0.357E-03
DAV:  12    -0.548595380491E+02   -0.22590E-06   -0.85975E-07 11160   0.106E-02    0.928E-04
DAV:  13    -0.548595381080E+02   -0.58910E-07   -0.77493E-08 10768   0.309E-03    0.241E-04
DAV:  14    -0.548595381231E+02   -0.15065E-07   -0.10401E-08  5928   0.985E-04    0.120E-04
DAV:  15    -0.548595381224E+02    0.64392E-09   -0.26585E-09  5464   0.428E-04
   7 F= -.54859538E+02 E0= -.54858761E+02  d E =-.141727E-01  mag=     0.0000
 trial-energy change:   -0.014173  1 .order   -0.015040   -0.024014   -0.006066
 step:   1.9077(harm=  1.5499)  dis= 0.02611  next Energy=   -54.861265 (dE=-0.159E-01)
 bond charge predicted
       N       E                     dE             d eps       ncg     rms          rms(c)
DAV:   1    -0.548901377188E+02   -0.30600E-01   -0.52504E+00 11840   0.528E+01    0.480E+00
DAV:   2    -0.552830649351E+02   -0.39293E+00   -0.47710E+00 11552   0.186E+01    0.587E+00
DAV:   3    -0.548779096109E+02    0.40516E+00   -0.13126E+00 11264   0.110E+01    0.135E+00
DAV:   4    -0.548680219085E+02    0.98877E-02   -0.63408E-02 13520   0.347E+00    0.111E+00
DAV:   5    -0.548627441149E+02    0.52778E-02   -0.39051E-02 11728   0.377E+00    0.681E-01
DAV:   6    -0.548598565388E+02    0.28876E-02   -0.95644E-03 11864   0.159E+00    0.291E-01
DAV:   7    -0.548596025177E+02    0.25402E-03   -0.38726E-03 12032   0.843E-01    0.197E-01
DAV:   8    -0.548593644575E+02    0.23806E-03   -0.84225E-04 11360   0.376E-01    0.396E-02
DAV:   9    -0.548593578520E+02    0.66055E-05   -0.11763E-04 10960   0.740E-02    0.186E-02
DAV:  10    -0.548593563994E+02    0.14526E-05   -0.18753E-05 11856   0.350E-02    0.509E-03
DAV:  11    -0.548593571138E+02   -0.71442E-06   -0.14451E-06 12320   0.119E-02    0.153E-03
DAV:  12    -0.548593572203E+02   -0.10651E-06   -0.26220E-07 11480   0.508E-03    0.731E-04
DAV:  13    -0.548593572719E+02   -0.51576E-07   -0.28516E-08  8392   0.185E-03    0.156E-04
DAV:  14    -0.548593572907E+02   -0.18805E-07   -0.38124E-09  5584   0.464E-04    0.695E-05
DAV:  15    -0.548593572934E+02   -0.27503E-08   -0.80604E-10  5384   0.229E-04
   8 F= -.54859357E+02 E0= -.54858708E+02  d E =-.139919E-01  mag=    -0.0000
 curvature:  -0.17 expect dE=-0.581E-02 dE for cont linesearch -0.249E-03
 ZBRENT: interpolating
 opt :   1.4970  next Energy=   -54.860425 (dE=-0.151E-01)
 bond charge predicted
       N       E                     dE             d eps       ncg     rms          rms(c)
DAV:   1    -0.548706671654E+02   -0.11310E-01   -0.15303E+00 12000   0.288E+01    0.272E+00
DAV:   2    -0.550060051212E+02   -0.13534E+00   -0.14614E+00 11456   0.105E+01    0.341E+00
DAV:   3    -0.548679547971E+02    0.13805E+00   -0.44694E-01 11216   0.659E+00    0.101E+00
DAV:   4    -0.548668001359E+02    0.11547E-02   -0.42258E-02 12256   0.268E+00    0.844E-01
DAV:   5    -0.548607678112E+02    0.60323E-02   -0.11252E-02 13088   0.132E+00    0.181E-01
DAV:   6    -0.548608014492E+02   -0.33638E-04   -0.24220E-03 11936   0.633E-01    0.202E-01
DAV:   7    -0.548605609947E+02    0.24045E-03   -0.96393E-04 11248   0.597E-01    0.465E-02
DAV:   8    -0.548605385522E+02    0.22443E-04   -0.18340E-04 11504   0.120E-01    0.281E-02
DAV:   9    -0.548605321679E+02    0.63842E-05   -0.28172E-05 11536   0.501E-02    0.717E-03
DAV:  10    -0.548605314401E+02    0.72783E-06   -0.24804E-06 11264   0.132E-02    0.229E-03
DAV:  11    -0.548605310665E+02    0.37358E-06   -0.19916E-07 11392   0.331E-03    0.667E-04
DAV:  12    -0.548605309498E+02    0.11670E-06   -0.23647E-08  7376   0.126E-03    0.178E-04
DAV:  13    -0.548605309169E+02    0.32862E-07   -0.39483E-09  5520   0.462E-04    0.777E-05
DAV:  14    -0.548605309172E+02   -0.27649E-09   -0.12147E-09  5360   0.301E-04
   9 F= -.54860531E+02 E0= -.54859839E+02  d E =-.151655E-01  mag=    -0.0000
 curvature:  -0.59 expect dE=-0.124E-01 dE for cont linesearch -0.414E-05
 trial: gam= 1.09548 g(F)=  0.590E-03 g(S)=  0.205E-01 ort = 0.434E-03 (trialstep = 0.607E+00)
 search vector abs. value=  0.542E-01
 bond charge predicted
       N       E                     dE             d eps       ncg     rms          rms(c)
DAV:   1    -0.547702437676E+02    0.90287E-01   -0.47382E+00 12208   0.476E+01    0.286E+00
DAV:   2    -0.549554860712E+02   -0.18524E+00   -0.24040E+00 11616   0.119E+01    0.291E+00
DAV:   3    -0.549399789600E+02    0.15507E-01   -0.53126E-01 11696   0.945E+00    0.302E+00
DAV:   4    -0.548927500253E+02    0.47229E-01   -0.21762E-01 11728   0.828E+00    0.144E+00
DAV:   5    -0.548712093491E+02    0.21541E-01   -0.46740E-02 13504   0.237E+00    0.169E-01
DAV:   6    -0.548715044171E+02   -0.29507E-03   -0.61465E-03 12736   0.960E-01    0.289E-01
DAV:   7    -0.548711080874E+02    0.39633E-03   -0.25356E-03 11424   0.993E-01    0.136E-01
DAV:   8    -0.548709961290E+02    0.11196E-03   -0.35623E-04 11632   0.323E-01    0.318E-02
DAV:   9    -0.548710047433E+02   -0.86143E-05   -0.93590E-05 11312   0.665E-02    0.936E-03
DAV:  10    -0.548710050769E+02   -0.33364E-06   -0.74584E-06 12880   0.262E-02    0.426E-03
DAV:  11    -0.548710049954E+02    0.81523E-07   -0.75051E-07 11584   0.120E-02    0.106E-03
DAV:  12    -0.548710049517E+02    0.43732E-07   -0.79398E-08 10840   0.324E-03    0.302E-04
DAV:  13    -0.548710049422E+02    0.94260E-08   -0.10622E-08  5872   0.108E-03
  10 F= -.54871005E+02 E0= -.54870441E+02  d E =-.104740E-01  mag=    -0.0000
 trial-energy change:   -0.010474  1 .order   -0.010218   -0.013074   -0.007361
 step:   1.1285(harm=  1.3893)  dis= 0.01878  next Energy=   -54.874329 (dE=-0.138E-01)
 bond charge predicted
       N       E                     dE             d eps       ncg     rms          rms(c)
DAV:   1    -0.548003100985E+02    0.70695E-01   -0.35051E+00 12240   0.409E+01    0.245E+00
DAV:   2    -0.549334566311E+02   -0.13315E+00   -0.17730E+00 11552   0.999E+00    0.238E+00
DAV:   3    -0.549243267741E+02    0.91299E-02   -0.35458E-01 11696   0.773E+00    0.256E+00
DAV:   4    -0.548917180103E+02    0.32609E-01   -0.16771E-01 11680   0.704E+00    0.130E+00
DAV:   5    -0.548749455140E+02    0.16772E-01   -0.36092E-02 13408   0.212E+00    0.152E-01
DAV:   6    -0.548752039034E+02   -0.25839E-03   -0.48528E-03 13136   0.892E-01    0.270E-01
DAV:   7    -0.548748268954E+02    0.37701E-03   -0.20375E-03 11488   0.899E-01    0.114E-01
DAV:   8    -0.548747509288E+02    0.75967E-04   -0.27449E-04 11776   0.273E-01    0.274E-02
DAV:   9    -0.548747572311E+02   -0.63023E-05   -0.67569E-05 11152   0.579E-02    0.806E-03
DAV:  10    -0.548747574634E+02   -0.23225E-06   -0.53333E-06 12832   0.233E-02    0.375E-03
DAV:  11    -0.548747573926E+02    0.70748E-07   -0.52977E-07 11552   0.101E-02    0.843E-04
DAV:  12    -0.548747573555E+02    0.37126E-07   -0.53257E-08 10064   0.281E-03    0.256E-04
DAV:  13    -0.548747573448E+02    0.10703E-07   -0.80160E-09  5776   0.975E-04    0.152E-04
DAV:  14    -0.548747573409E+02    0.38635E-08   -0.20513E-09  5504   0.481E-04
  11 F= -.54874757E+02 E0= -.54874036E+02  d E =-.142264E-01  mag=    -0.0000
 curvature:  -1.56 expect dE=-0.147E-01 dE for cont linesearch -0.958E-04
 trial: gam=-0.00337 g(F)=  0.465E-02 g(S)=  0.482E-02 ort = 0.183E-02 (trialstep = 0.711E+00)
 search vector abs. value=  0.946E-02
 bond charge predicted
       N       E                     dE             d eps       ncg     rms          rms(c)
DAV:   1    -0.549169096417E+02   -0.42152E-01   -0.18778E+00 11424   0.330E+01    0.331E+00
DAV:   2    -0.550934517995E+02   -0.17654E+00   -0.19770E+00 11328   0.126E+01    0.425E+00
DAV:   3    -0.549042517304E+02    0.18920E+00   -0.72120E-01 11328   0.937E+00    0.207E+00
DAV:   4    -0.548848494604E+02    0.19402E-01   -0.12132E-01 11664   0.479E+00    0.706E-01
DAV:   5    -0.548801433432E+02    0.47061E-02   -0.89192E-03 12160   0.853E-01    0.269E-01
DAV:   6    -0.548795434515E+02    0.59989E-03   -0.22483E-03 11856   0.397E-01    0.605E-02
DAV:   7    -0.548795747064E+02   -0.31255E-04   -0.41762E-04 11696   0.335E-01    0.105E-01
DAV:   8    -0.548795092076E+02    0.65499E-04   -0.21230E-04 11472   0.275E-01    0.336E-02
DAV:   9    -0.548795003373E+02    0.88703E-05   -0.27056E-05 12112   0.459E-02    0.897E-03
DAV:  10    -0.548794994809E+02    0.85638E-06   -0.42893E-06 13200   0.162E-02    0.450E-03
DAV:  11    -0.548794989596E+02    0.52129E-06   -0.94166E-07 11504   0.901E-03    0.735E-04
DAV:  12    -0.548794989432E+02    0.16440E-07   -0.74463E-08 10256   0.253E-03    0.257E-04
DAV:  13    -0.548794989374E+02    0.57735E-08   -0.40140E-09  5584   0.610E-04
  12 F= -.54879499E+02 E0= -.54878609E+02  d E =-.474160E-02  mag=    -0.0000
 trial-energy change:   -0.004742  1 .order   -0.004679   -0.006733   -0.002624
 step:   1.1089(harm=  1.1656)  dis= 0.00734  next Energy=   -54.880243 (dE=-0.549E-02)
 bond charge predicted
       N       E                     dE             d eps       ncg     rms          rms(c)
DAV:   1    -0.548918834822E+02   -0.12385E-01   -0.58889E-01 11472   0.184E+01    0.183E+00
DAV:   2    -0.549438744861E+02   -0.51991E-01   -0.60909E-01 11344   0.695E+00    0.231E+00
DAV:   3    -0.548883185022E+02    0.55556E-01   -0.21806E-01 11312   0.513E+00    0.119E+00
DAV:   4    -0.548820490133E+02    0.62695E-02   -0.37336E-02 11680   0.253E+00    0.399E-01
DAV:   5    -0.548805100832E+02    0.15389E-02   -0.27100E-03 11888   0.480E-01    0.145E-01
DAV:   6    -0.548804378650E+02    0.72218E-04   -0.78005E-04 12784   0.411E-01    0.133E-01
DAV:   7    -0.548803258899E+02    0.11198E-03   -0.34284E-04 11456   0.361E-01    0.270E-02
DAV:   8    -0.548803179823E+02    0.79077E-05   -0.69123E-05 11568   0.749E-02    0.172E-02
DAV:   9    -0.548803153058E+02    0.26765E-05   -0.89076E-06 11792   0.299E-02    0.326E-03
DAV:  10    -0.548803150122E+02    0.29364E-06   -0.71705E-07 10816   0.641E-03    0.179E-03
DAV:  11    -0.548803147988E+02    0.21334E-06   -0.10677E-07 11456   0.301E-03    0.287E-04
DAV:  12    -0.548803147574E+02    0.41389E-07   -0.11025E-08  6080   0.865E-04    0.871E-05
DAV:  13    -0.548803147409E+02    0.16549E-07   -0.13960E-09  5456   0.261E-04    0.214E-05
DAV:  14    -0.548803147377E+02    0.31832E-08   -0.30738E-10  5328   0.156E-04
  13 F= -.54880315E+02 E0= -.54879340E+02  d E =-.555740E-02  mag=     0.0000
 curvature:  -0.57 expect dE=-0.244E-02 dE for cont linesearch -0.961E-05
 trial: gam= 0.40729 g(F)=  0.846E-03 g(S)=  0.341E-02 ort = 0.398E-03 (trialstep = 0.791E+00)
 search vector abs. value=  0.615E-02
 bond charge predicted
       N       E                     dE             d eps       ncg     rms          rms(c)
DAV:   1    -0.548613762685E+02    0.18938E-01   -0.12721E+00 11664   0.298E+01    0.200E+00
DAV:   2    -0.549454635959E+02   -0.84087E-01   -0.10168E+00 11536   0.820E+00    0.227E+00
DAV:   3    -0.548876082928E+02    0.57855E-01   -0.21647E-01 11184   0.457E+00    0.778E-01
DAV:   4    -0.548879049495E+02   -0.29666E-03   -0.24850E-02 12464   0.204E+00    0.828E-01
DAV:   5    -0.548828934671E+02    0.50115E-02   -0.93428E-03 11872   0.133E+00    0.198E-01
DAV:   6    -0.548838745753E+02   -0.98111E-03   -0.44410E-03 12720   0.126E+00    0.436E-01
DAV:   7    -0.548825475341E+02    0.13270E-02   -0.25546E-03 11744   0.106E+00    0.497E-02
DAV:   8    -0.548825514388E+02   -0.39047E-05   -0.28741E-04 11200   0.116E-01    0.181E-02
DAV:   9    -0.548825520330E+02   -0.59420E-06   -0.21086E-05 12160   0.448E-02    0.128E-02
DAV:  10    -0.548825518238E+02    0.20924E-06   -0.49691E-06 11536   0.293E-02    0.214E-03
DAV:  11    -0.548825520115E+02   -0.18773E-06   -0.44492E-07 11584   0.752E-03    0.988E-04
DAV:  12    -0.548825521286E+02   -0.11707E-06   -0.40171E-08  9696   0.246E-03    0.199E-04
DAV:  13    -0.548825521427E+02   -0.14086E-07   -0.48020E-09  5600   0.713E-04    0.874E-05
DAV:  14    -0.548825521444E+02   -0.17026E-08   -0.12939E-09  5440   0.288E-04
  14 F= -.54882552E+02 E0= -.54881400E+02  d E =-.223741E-02  mag=    -0.0000
 trial-energy change:   -0.002237  1 .order   -0.002252   -0.003497   -0.001006
 step:   1.1268(harm=  1.1105)  dis= 0.00689  next Energy=   -54.882765 (dE=-0.245E-02)
 bond charge predicted
       N       E                     dE             d eps       ncg     rms          rms(c)
DAV:   1    -0.548789279322E+02    0.36242E-02   -0.22798E-01 11696   0.126E+01    0.850E-01
DAV:   2    -0.548942099941E+02   -0.15282E-01   -0.18278E-01 11552   0.348E+00    0.966E-01
DAV:   3    -0.548836499713E+02    0.10560E-01   -0.39475E-02 11168   0.195E+00    0.331E-01
DAV:   4    -0.548837351652E+02   -0.85194E-04   -0.45938E-03 12304   0.875E-01    0.362E-01
DAV:   5    -0.548828094534E+02    0.92571E-03   -0.17323E-03 11920   0.559E-01    0.801E-02
DAV:   6    -0.548829450976E+02   -0.13564E-03   -0.68982E-04 13008   0.471E-01    0.166E-01
DAV:   7    -0.548827543639E+02    0.19073E-03   -0.38600E-04 11728   0.412E-01    0.206E-02
DAV:   8    -0.548827549177E+02   -0.55378E-06   -0.43284E-05 11184   0.469E-02    0.768E-03
DAV:   9    -0.548827553379E+02   -0.42022E-06   -0.33434E-06 12080   0.169E-02    0.504E-03
DAV:  10    -0.548827554637E+02   -0.12579E-06   -0.82874E-07 11488   0.115E-02    0.889E-04
DAV:  11    -0.548827555539E+02   -0.90149E-07   -0.71637E-08 10304   0.322E-03    0.419E-04
DAV:  12    -0.548827555930E+02   -0.39076E-07   -0.48641E-09  5632   0.109E-03    0.665E-05
DAV:  13    -0.548827556007E+02   -0.77052E-08   -0.17359E-09  5360   0.314E-04
  15 F= -.54882756E+02 E0= -.54881532E+02  d E =-.244086E-02  mag=    -0.0000
 curvature:  -0.77 expect dE=-0.434E-03 dE for cont linesearch -0.180E-06
 trial: gam= 0.19373 g(F)=  0.142E-03 g(S)=  0.421E-03 ort =-0.379E-04 (trialstep = 0.858E+00)
 search vector abs. value=  0.779E-03
 bond charge predicted
       N       E                     dE             d eps       ncg     rms          rms(c)
DAV:   1    -0.548860285779E+02   -0.32730E-02   -0.11826E-01 11952   0.480E+00    0.652E-01
DAV:   2    -0.548901722474E+02   -0.41437E-02   -0.60012E-02 11488   0.228E+00    0.833E-01
DAV:   3    -0.548867688008E+02    0.34034E-02   -0.30725E-02 11744   0.226E+00    0.754E-01
DAV:   4    -0.548838139479E+02    0.29549E-02   -0.11368E-02 11696   0.146E+00    0.239E-01
DAV:   5    -0.548833201161E+02    0.49383E-03   -0.16610E-03 13488   0.531E-01    0.149E-01
DAV:   6    -0.548831923140E+02    0.12780E-03   -0.50907E-04 11552   0.446E-01    0.592E-02
DAV:   7    -0.548831674141E+02    0.24900E-04   -0.10192E-04 11568   0.139E-01    0.967E-03
DAV:   8    -0.548831676050E+02   -0.19090E-06   -0.15291E-05 11120   0.290E-02    0.544E-03
DAV:   9    -0.548831674169E+02    0.18819E-06   -0.93273E-07 12608   0.919E-03    0.136E-03
DAV:  10    -0.548831674095E+02    0.73742E-08   -0.79248E-08 10448   0.220E-03
  16 F= -.54883167E+02 E0= -.54881842E+02  d E =-.411809E-03  mag=    -0.0000
 trial-energy change:   -0.000412  1 .order   -0.000401   -0.000477   -0.000325
 step:   1.8242(harm=  2.6970)  dis= 0.00246  next Energy=   -54.883366 (dE=-0.610E-03)
 bond charge predicted
       N       E                     dE             d eps       ncg     rms          rms(c)
DAV:   1    -0.548871215315E+02   -0.39541E-02   -0.15028E-01 11952   0.541E+00    0.739E-01
DAV:   2    -0.548926261701E+02   -0.55046E-02   -0.77062E-02 11456   0.259E+00    0.958E-01
DAV:   3    -0.548882109030E+02    0.44153E-02   -0.40424E-02 11744   0.259E+00    0.868E-01
DAV:   4    -0.548842642470E+02    0.39467E-02   -0.14803E-02 11744   0.168E+00    0.267E-01
DAV:   5    -0.548836616407E+02    0.60261E-03   -0.21468E-03 13488   0.605E-01    0.174E-01
DAV:   6    -0.548834860269E+02    0.17561E-03   -0.66900E-04 11584   0.511E-01    0.667E-02
DAV:   7    -0.548834543031E+02    0.31724E-04   -0.13302E-04 11648   0.155E-01    0.110E-02
DAV:   8    -0.548834546157E+02   -0.31261E-06   -0.19260E-05 11152   0.326E-02    0.635E-03
DAV:   9    -0.548834543861E+02    0.22961E-06   -0.12197E-06 12640   0.105E-02    0.156E-03
DAV:  10    -0.548834543792E+02    0.69122E-08   -0.10873E-07 10864   0.267E-03    0.684E-04
DAV:  11    -0.548834543713E+02    0.78871E-08   -0.23141E-08  7792   0.158E-03
  17 F= -.54883454E+02 E0= -.54882029E+02  d E =-.698771E-03  mag=    -0.0000
 curvature:  -1.46 expect dE=-0.414E-03 dE for cont linesearch -0.835E-04
 ZBRENT: increasing intervall
 opt :   3.7564  next Energy=   -54.883537 (dE=-0.781E-03)
 bond charge predicted
       N       E                     dE             d eps       ncg     rms          rms(c)
DAV:   1    -0.548984461437E+02   -0.14992E-01   -0.60225E-01 11920   0.108E+01    0.149E+00
DAV:   2    -0.549219205852E+02   -0.23474E-01   -0.31441E-01 11440   0.527E+00    0.196E+00
DAV:   3    -0.549031256103E+02    0.18795E-01   -0.16955E-01 11728   0.530E+00    0.173E+00
DAV:   4    -0.548866614442E+02    0.16464E-01   -0.60391E-02 11824   0.372E+00    0.523E-01
DAV:   5    -0.548844551476E+02    0.22063E-02   -0.89762E-03 13456   0.122E+00    0.361E-01
DAV:   6    -0.548836961220E+02    0.75903E-03   -0.28253E-03 11616   0.105E+00    0.137E-01
DAV:   7    -0.548835608268E+02    0.13530E-03   -0.57385E-04 11648   0.313E-01    0.228E-02
DAV:   8    -0.548835637576E+02   -0.29308E-05   -0.78118E-05 11088   0.653E-02    0.139E-02
DAV:   9    -0.548835633184E+02    0.43918E-06   -0.56376E-06 13040   0.224E-02    0.363E-03
DAV:  10    -0.548835633107E+02    0.77780E-08   -0.70927E-07 12384   0.783E-03    0.188E-03
DAV:  11    -0.548835632859E+02    0.24800E-07   -0.19309E-07 11456   0.460E-03    0.716E-04
DAV:  12    -0.548835632650E+02    0.20900E-07   -0.22265E-08  6672   0.164E-03    0.232E-04
DAV:  13    -0.548835632614E+02    0.35398E-08   -0.32374E-09  5504   0.464E-04
  18 F= -.54883563E+02 E0= -.54882001E+02  d E =-.807661E-03  mag=    -0.0000
 curvature:  -1.44 expect dE=-0.139E-02 dE for cont linesearch -0.290E-04
 ZBRENT: bracketing found
 ZBRENT: interpolating
 opt :   3.0363  next Energy=   -54.883608 (dE=-0.853E-03)
 bond charge predicted
       N       E                     dE             d eps       ncg     rms          rms(c)
DAV:   1    -0.548856983028E+02   -0.21350E-02   -0.83984E-02 11952   0.402E+00    0.557E-01
DAV:   2    -0.548889756221E+02   -0.32773E-02   -0.44034E-02 11472   0.196E+00    0.748E-01
DAV:   3    -0.548865257533E+02    0.24499E-02   -0.23919E-02 11776   0.202E+00    0.704E-01
DAV:   4    -0.548840711741E+02    0.24546E-02   -0.90848E-03 11760   0.122E+00    0.199E-01
DAV:   5    -0.548837709043E+02    0.30027E-03   -0.12816E-03 13616   0.488E-01    0.153E-01
DAV:   6    -0.548836222197E+02    0.14868E-03   -0.44052E-04 11616   0.443E-01    0.460E-02
DAV:   7    -0.548836080833E+02    0.14136E-04   -0.81474E-05 11600   0.102E-01    0.839E-03
DAV:   8    -0.548836093283E+02   -0.12450E-05   -0.95171E-06 11104   0.238E-02    0.469E-03
DAV:   9    -0.548836095621E+02   -0.23381E-06   -0.69628E-07 11888   0.809E-03    0.116E-03
DAV:  10    -0.548836095812E+02   -0.19063E-07   -0.59962E-08 10336   0.195E-03    0.563E-04
DAV:  11    -0.548836095843E+02   -0.31250E-08   -0.13999E-08  5856   0.122E-03
  19 F= -.54883610E+02 E0= -.54882088E+02  d E =-.853984E-03  mag=    -0.0000
 curvature:  -2.24 expect dE=-0.135E-02 dE for cont linesearch -0.312E-07
 trial: gam= 1.09570 g(F)=  0.923E-04 g(S)=  0.511E-03 ort =-0.329E-05 (trialstep = 0.658E+00)
 search vector abs. value=  0.153E-02
 bond charge predicted
       N       E                     dE             d eps       ncg     rms          rms(c)
DAV:   1    -0.548878236796E+02   -0.42141E-02   -0.14312E-01 13120   0.536E+00    0.726E-01
DAV:   2    -0.548914313701E+02   -0.36077E-02   -0.70272E-02 11376   0.251E+00    0.785E-01
DAV:   3    -0.548851056189E+02    0.63258E-02   -0.22674E-02 11328   0.158E+00    0.378E-01
DAV:   4    -0.548861408641E+02   -0.10352E-02   -0.95553E-03 12048   0.135E+00    0.586E-01
DAV:   5    -0.548839409379E+02    0.21999E-02   -0.45403E-03 12832   0.885E-01    0.647E-02
DAV:   6    -0.548839719117E+02   -0.30974E-04   -0.54425E-04 13920   0.346E-01    0.919E-02
DAV:   7    -0.548839162259E+02    0.55686E-04   -0.14556E-04 11424   0.232E-01    0.115E-02
DAV:   8    -0.548839170058E+02   -0.77986E-06   -0.16405E-05 11152   0.286E-02    0.738E-03
DAV:   9    -0.548839176261E+02   -0.62034E-06   -0.14774E-06 12784   0.110E-02    0.267E-03
DAV:  10    -0.548839176512E+02   -0.25069E-07   -0.35147E-07 11904   0.706E-03    0.813E-04
DAV:  11    -0.548839176964E+02   -0.45187E-07   -0.28812E-08  8552   0.197E-03    0.254E-04
DAV:  12    -0.548839177068E+02   -0.10412E-07   -0.41923E-09  5472   0.755E-04    0.878E-05
DAV:  13    -0.548839177114E+02   -0.46603E-08   -0.12106E-09  5424   0.298E-04
  20 F= -.54883918E+02 E0= -.54882352E+02  d E =-.308127E-03  mag=     0.0000
 trial-energy change:   -0.000308  1 .order   -0.000312   -0.000395   -0.000229
 step:   1.5706(harm=  1.5706)  dis= 0.00193  next Energy=   -54.884080 (dE=-0.471E-03)
 bond charge predicted
       N       E                     dE             d eps       ncg     rms          rms(c)
DAV:   1    -0.548915079342E+02   -0.75902E-02   -0.27451E-01 13136   0.742E+00    0.100E+00
DAV:   2    -0.548982515479E+02   -0.67436E-02   -0.13360E-01 11376   0.346E+00    0.108E+00
DAV:   3    -0.548864103103E+02    0.11841E-01   -0.43091E-02 11344   0.219E+00    0.536E-01
DAV:   4    -0.548882217819E+02   -0.18115E-02   -0.18404E-02 12032   0.187E+00    0.800E-01
DAV:   5    -0.548841026827E+02    0.41191E-02   -0.84990E-03 12928   0.120E+00    0.849E-02
DAV:   6    -0.548841705118E+02   -0.67829E-04   -0.10190E-03 13904   0.468E-01    0.129E-01
DAV:   7    -0.548840605942E+02    0.10992E-03   -0.28184E-04 11488   0.327E-01    0.159E-02
DAV:   8    -0.548840619598E+02   -0.13656E-05   -0.31928E-05 11104   0.396E-02    0.103E-02
DAV:   9    -0.548840629370E+02   -0.97716E-06   -0.28583E-06 12912   0.155E-02    0.374E-03
DAV:  10    -0.548840629576E+02   -0.20631E-07   -0.68528E-07 11872   0.100E-02    0.113E-03
DAV:  11    -0.548840630175E+02   -0.59932E-07   -0.60018E-08  9904   0.283E-03    0.346E-04
DAV:  12    -0.548840630292E+02   -0.11692E-07   -0.61878E-09  5632   0.101E-03    0.113E-04
DAV:  13    -0.548840630352E+02   -0.60318E-08   -0.19586E-09  5456   0.392E-04
  21 F= -.54884063E+02 E0= -.54882477E+02  d E =-.453451E-03  mag=    -0.0000
 curvature:  -2.01 expect dE=-0.923E-03 dE for cont linesearch -0.107E-05
 trial: gam= 0.82087 g(F)=  0.132E-03 g(S)=  0.328E-03 ort =-0.285E-04 (trialstep = 0.841E+00)
 search vector abs. value=  0.144E-02
 bond charge predicted
       N       E                     dE             d eps       ncg     rms          rms(c)
DAV:   1    -0.548891435587E+02   -0.50805E-02   -0.21175E-01 12464   0.629E+00    0.857E-01
DAV:   2    -0.548960288450E+02   -0.68853E-02   -0.10148E-01 11360   0.306E+00    0.110E+00
DAV:   3    -0.548912211954E+02    0.48076E-02   -0.53664E-02 11792   0.300E+00    0.105E+00
DAV:   4    -0.548855336662E+02    0.56875E-02   -0.21039E-02 11792   0.204E+00    0.326E-01
DAV:   5    -0.548845844350E+02    0.94923E-03   -0.32231E-03 13520   0.710E-01    0.198E-01
DAV:   6    -0.548843587003E+02    0.22573E-03   -0.88922E-04 11616   0.575E-01    0.763E-02
DAV:   7    -0.548843164054E+02    0.42295E-04   -0.17872E-04 11424   0.173E-01    0.137E-02
DAV:   8    -0.548843165994E+02   -0.19396E-06   -0.27148E-05 11328   0.385E-02    0.746E-03
DAV:   9    -0.548843163509E+02    0.24852E-06   -0.16224E-06 12032   0.124E-02    0.200E-03
DAV:  10    -0.548843163257E+02    0.25120E-07   -0.19603E-07 11104   0.312E-03    0.708E-04
DAV:  11    -0.548843163101E+02    0.15600E-07   -0.16885E-08  6704   0.134E-03    0.215E-04
DAV:  12    -0.548843163083E+02    0.18081E-08   -0.46800E-09  5504   0.612E-04
  22 F= -.54884316E+02 E0= -.54882746E+02  d E =-.253273E-03  mag=    -0.0000
 trial-energy change:   -0.000253  1 .order   -0.000229   -0.000367   -0.000091
 step:   1.0096(harm=  1.1169)  dis= 0.00164  next Energy=   -54.884326 (dE=-0.263E-03)
 bond charge predicted
       N       E                     dE             d eps       ncg     rms          rms(c)
DAV:   1    -0.548845238219E+02   -0.20751E-03   -0.85438E-03 12464   0.126E+00    0.172E-01
DAV:   2    -0.548848023729E+02   -0.27855E-03   -0.40871E-03 11408   0.613E-01    0.221E-01
DAV:   3    -0.548846188903E+02    0.18348E-03   -0.21777E-03 11792   0.609E-01    0.218E-01
DAV:   4    -0.548843790457E+02    0.23984E-03   -0.87440E-04 11744   0.392E-01    0.653E-02
DAV:   5    -0.548843403258E+02    0.38720E-04   -0.12911E-04 13568   0.143E-01    0.408E-02
DAV:   6    -0.548843305535E+02    0.97724E-05   -0.36731E-05 11568   0.118E-01    0.150E-02
DAV:   7    -0.548843288587E+02    0.16947E-05   -0.71045E-06 11376   0.339E-02    0.277E-03
DAV:   8    -0.548843286568E+02    0.20193E-06   -0.10933E-06 11344   0.775E-03    0.142E-03
DAV:   9    -0.548843286286E+02    0.28162E-07   -0.70497E-08 10208   0.263E-03    0.406E-04
DAV:  10    -0.548843286178E+02    0.10863E-07   -0.77248E-09  5440   0.704E-04    0.163E-04
DAV:  11    -0.548843286137E+02    0.40563E-08   -0.15261E-09  5264   0.357E-04
  23 F= -.54884329E+02 E0= -.54882762E+02  d E =-.265578E-03  mag=    -0.0000
 curvature:  -1.57 expect dE=-0.989E-04 dE for cont linesearch -0.146E-05
 trial: gam=-0.16242 g(F)=  0.445E-04 g(S)=  0.186E-04 ort = 0.367E-04 (trialstep = 0.875E+00)
 search vector abs. value=  0.892E-04
 bond charge predicted
       N       E                     dE             d eps       ncg     rms          rms(c)
DAV:   1    -0.548845706303E+02   -0.24201E-03   -0.11769E-02 13328   0.188E+00    0.203E-01
DAV:   2    -0.548849953932E+02   -0.42476E-03   -0.64087E-03 11440   0.752E-01    0.230E-01
DAV:   3    -0.548845490641E+02    0.44633E-03   -0.21179E-03 11456   0.553E-01    0.173E-01
DAV:   4    -0.548844446533E+02    0.10441E-03   -0.84429E-04 11696   0.380E-01    0.942E-02
DAV:   5    -0.548843770353E+02    0.67618E-04   -0.18122E-04 13504   0.178E-01    0.440E-02
DAV:   6    -0.548843662160E+02    0.10819E-04   -0.51732E-05 11680   0.141E-01    0.176E-02
DAV:   7    -0.548843640799E+02    0.21361E-05   -0.82376E-06 11744   0.439E-02    0.306E-03
DAV:   8    -0.548843638912E+02    0.18872E-06   -0.11691E-06 11568   0.836E-03    0.145E-03
DAV:   9    -0.548843638617E+02    0.29548E-07   -0.87287E-08 10312   0.313E-03    0.395E-04
DAV:  10    -0.548843638492E+02    0.12446E-07   -0.71880E-09  5712   0.649E-04    0.126E-04
DAV:  11    -0.548843638430E+02    0.62209E-08   -0.14687E-09  5392   0.309E-04
  24 F= -.54884364E+02 E0= -.54882801E+02  d E =-.352293E-04  mag=    -0.0000
 trial-energy change:   -0.000035  1 .order   -0.000035   -0.000050   -0.000020
 step:   1.3874(harm=  1.4496)  dis= 0.00108  next Energy=   -54.884370 (dE=-0.411E-04)
 bond charge predicted
       N       E                     dE             d eps       ncg     rms          rms(c)
DAV:   1    -0.548844414068E+02   -0.77558E-04   -0.40479E-03 13296   0.110E+00    0.119E-01
DAV:   2    -0.548845893249E+02   -0.14792E-03   -0.22056E-03 11456   0.441E-01    0.135E-01
DAV:   3    -0.548844344853E+02    0.15484E-03   -0.72793E-04 11456   0.324E-01    0.101E-01
DAV:   4    -0.548843986462E+02    0.35839E-04   -0.28945E-04 11696   0.223E-01    0.553E-02
DAV:   5    -0.548843752621E+02    0.23384E-04   -0.62418E-05 13520   0.104E-01    0.259E-02
DAV:   6    -0.548843715046E+02    0.37575E-05   -0.17823E-05 11680   0.828E-02    0.103E-02
DAV:   7    -0.548843707552E+02    0.74943E-06   -0.28283E-06 11744   0.257E-02    0.180E-03
DAV:   8    -0.548843706364E+02    0.11885E-06   -0.40001E-07 11584   0.490E-03    0.857E-04
DAV:   9    -0.548843706177E+02    0.18677E-07   -0.28466E-08  8320   0.182E-03    0.231E-04
DAV:  10    -0.548843706115E+02    0.61918E-08   -0.35950E-09  5424   0.421E-04
  25 F= -.54884371E+02 E0= -.54882809E+02  d E =-.419978E-04  mag=    -0.0000
 curvature:  -1.12 expect dE=-0.250E-04 dE for cont linesearch -0.844E-07
 trial: gam= 0.23448 g(F)=  0.915E-05 g(S)=  0.132E-04 ort = 0.259E-05 (trialstep = 0.977E+00)
 search vector abs. value=  0.285E-04
 bond charge predicted
       N       E                     dE             d eps       ncg     rms          rms(c)
DAV:   1    -0.548847318060E+02   -0.36119E-03   -0.75299E-03 11552   0.180E+00    0.238E-01
DAV:   2    -0.548855685961E+02   -0.83679E-03   -0.93841E-03 11344   0.899E-01    0.332E-01
DAV:   3    -0.548846934200E+02    0.87518E-03   -0.44533E-03 11584   0.788E-01    0.248E-01
DAV:   4    -0.548844031468E+02    0.29027E-03   -0.11675E-03 11536   0.425E-01    0.448E-02
DAV:   5    -0.548843914719E+02    0.11675E-04   -0.82365E-05 12192   0.102E-01    0.372E-02
DAV:   6    -0.548843855117E+02    0.59602E-05   -0.33504E-05 11712   0.119E-01    0.226E-02
DAV:   7    -0.548843824899E+02    0.30218E-05   -0.93840E-06 12016   0.491E-02    0.294E-03
DAV:   8    -0.548843826432E+02   -0.15324E-06   -0.12680E-06 11024   0.788E-03    0.125E-03
DAV:   9    -0.548843827633E+02   -0.12015E-06   -0.14765E-07 11712   0.294E-03    0.113E-03
DAV:  10    -0.548843827881E+02   -0.24833E-07   -0.62317E-08  9056   0.236E-03    0.423E-04
DAV:  11    -0.548843827999E+02   -0.11714E-07   -0.42654E-09  5376   0.590E-04    0.120E-04
DAV:  12    -0.548843828030E+02   -0.31287E-08   -0.69305E-10  5360   0.172E-04
  26 F= -.54884383E+02 E0= -.54882826E+02  d E =-.121915E-04  mag=    -0.0000
 trial-energy change:   -0.000012  1 .order   -0.000013   -0.000022   -0.000003
 step:   1.1506(harm=  1.1211)  dis= 0.00056  next Energy=   -54.884383 (dE=-0.124E-04)
 bond charge predicted
       N       E                     dE             d eps       ncg     rms          rms(c)
DAV:   1    -0.548843941327E+02   -0.11333E-04   -0.23705E-04 11552   0.319E-01    0.422E-02
DAV:   2    -0.548844190714E+02   -0.24939E-04   -0.29593E-04 11344   0.160E-01    0.590E-02
DAV:   3    -0.548843922332E+02    0.26838E-04   -0.14081E-04 11600   0.140E-01    0.440E-02
DAV:   4    -0.548843831545E+02    0.90787E-05   -0.36754E-05 11520   0.759E-02    0.787E-03
DAV:   5    -0.548843829831E+02    0.17144E-06   -0.26158E-06 12128   0.179E-02    0.658E-03
DAV:   6    -0.548843828586E+02    0.12451E-06   -0.10551E-06 11712   0.210E-02    0.406E-03
DAV:   7    -0.548843828445E+02    0.14046E-07   -0.30089E-07 12080   0.884E-03    0.527E-04
DAV:   8    -0.548843828718E+02   -0.27252E-07   -0.39969E-08  8944   0.140E-03    0.227E-04
DAV:   9    -0.548843828946E+02   -0.22796E-07   -0.45186E-09  5296   0.569E-04    0.198E-04
DAV:  10    -0.548843829001E+02   -0.54824E-08   -0.21253E-09  5248   0.484E-04
  27 F= -.54884383E+02 E0= -.54882827E+02  d E =-.122886E-04  mag=    -0.0000
 curvature:  -0.67 expect dE=-0.516E-05 dE for cont linesearch -0.332E-07
 trial: gam= 0.45065 g(F)=  0.244E-05 g(S)=  0.531E-05 ort =-0.119E-05 (trialstep = 0.101E+01)
 search vector abs. value=  0.125E-04
 bond charge predicted
       N       E                     dE             d eps       ncg     rms          rms(c)
DAV:   1    -0.548842551337E+02    0.12776E-03   -0.38919E-03 11776   0.169E+00    0.886E-02
DAV:   2    -0.548845072029E+02   -0.25207E-03   -0.27545E-03 11456   0.382E-01    0.999E-02
DAV:   3    -0.548844080747E+02    0.99128E-04   -0.47163E-04 11280   0.235E-01    0.600E-02
DAV:   4    -0.548843951782E+02    0.12896E-04   -0.92906E-05 12176   0.123E-01    0.286E-02
DAV:   5    -0.548843896296E+02    0.55486E-05   -0.10226E-05 12672   0.450E-02    0.165E-02
DAV:   6    -0.548843892832E+02    0.34640E-06   -0.78680E-06 11904   0.574E-02    0.170E-02
DAV:   7    -0.548843865453E+02    0.27379E-05   -0.44438E-06 11936   0.379E-02    0.229E-03
DAV:   8    -0.548843864848E+02    0.60481E-07   -0.76134E-07 11152   0.570E-03    0.915E-04
DAV:   9    -0.548843864650E+02    0.19794E-07   -0.74012E-08  9920   0.218E-03    0.670E-04
DAV:  10    -0.548843864352E+02    0.29799E-07   -0.79540E-09  5440   0.857E-04    0.880E-05
DAV:  11    -0.548843864268E+02    0.84401E-08   -0.17643E-09  5280   0.342E-04
  28 F= -.54884386E+02 E0= -.54882836E+02  d E =-.352673E-05  mag=    -0.0000
 trial-energy change:   -0.000004  1 .order   -0.000004   -0.000007    0.000000
 step:   0.9755(harm=  0.9755)  dis= 0.00029  next Energy=   -54.884386 (dE=-0.352E-05)
 bond charge predicted
       N       E                     dE             d eps       ncg     rms          rms(c)
DAV:   1    -0.548843862777E+02    0.15756E-06   -0.50193E-06 11776   0.608E-02    0.318E-03
DAV:   2    -0.548843864484E+02   -0.17070E-06   -0.35551E-06 11472   0.137E-02    0.360E-03
DAV:   3    -0.548843864038E+02    0.44522E-07   -0.61257E-07 11296   0.853E-03    0.221E-03
DAV:   4    -0.548843863917E+02    0.12136E-07   -0.12337E-07 10432   0.449E-03    0.102E-03
DAV:   5    -0.548843863942E+02   -0.25102E-08   -0.12044E-08  5136   0.165E-03
  29 F= -.54884386E+02 E0= -.54882836E+02  d E =-.349415E-05  mag=    -0.0000
 curvature:  -0.84 expect dE=-0.113E-05 dE for cont linesearch -0.686E-07
 trial: gam= 0.00000 g(F)=  0.475E-06 g(S)=  0.869E-06 ort =-0.101E-05 (trialstep = 0.100E+01)
 search vector abs. value=  0.134E-05
 reached required accuracy - stopping structural energy minimisation
 writing wavefunctions
