 running on   24 total cores
 distrk:  each k-point on   24 cores,    1 groups
 distr:  one band on    6 cores,    4 groups
 using from now: INCAR     
 vasp.5.4.4.18Apr17-6-g9f103f2a35 (build Jan 03 2018 06:08:52) complex          
  
 POSCAR found :  2 types and       5 ions
 scaLAPACK will be used
 WARNING: for PREC=h ENMAX is automatically increase by 25 %
        this was not the case for versions prior to vasp.4.4
 WARNING: for PREC=h ENMAX is automatically increase by 25 %
        this was not the case for versions prior to vasp.4.4
 LDA part: xc-table for Pade appr. of Perdew
 POSCAR, INCAR and KPOINTS ok, starting setup
 FFT: planning ...
 WAVECAR not read
 entering main loop
       N       E                     dE             d eps       ncg     rms          rms(c)
DAV:   1     0.619351872448E+03    0.61935E+03   -0.32009E+04 11816   0.174E+03
DAV:   2     0.524596150828E+01   -0.61411E+03   -0.59188E+03  9956   0.551E+02
DAV:   3    -0.298453732072E+02   -0.35091E+02   -0.33618E+02 10948   0.151E+02
DAV:   4    -0.307231974077E+02   -0.87782E+00   -0.87373E+00 10948   0.231E+01
DAV:   5    -0.307448062676E+02   -0.21609E-01   -0.21607E-01 11160   0.380E+00    0.219E+01
DAV:   6    -0.368956194691E+02   -0.61508E+01   -0.77923E+01 10984   0.117E+02    0.280E+01
DAV:   7    -0.267748831272E+02    0.10121E+02   -0.29419E+01 10800   0.724E+01    0.269E+00
DAV:   8    -0.268068257275E+02   -0.31943E-01   -0.11178E+00 11384   0.954E+00    0.207E+00
DAV:   9    -0.268105033873E+02   -0.36777E-02   -0.27281E-01 11828   0.101E+01    0.239E+00
DAV:  10    -0.267685048179E+02    0.41999E-01   -0.14123E-01 11400   0.690E+00    0.474E-01
DAV:  11    -0.267674402507E+02    0.10646E-02   -0.11290E-02 10904   0.969E-01    0.204E-01
DAV:  12    -0.267672311161E+02    0.20913E-03   -0.23333E-03 12328   0.566E-01    0.792E-02
DAV:  13    -0.267671881345E+02    0.42982E-04   -0.14410E-04 11572   0.122E-01    0.364E-02
DAV:  14    -0.267671746034E+02    0.13531E-04   -0.41004E-05 13032   0.622E-02    0.922E-03
DAV:  15    -0.267671740002E+02    0.60322E-06   -0.42298E-06 10944   0.261E-02    0.289E-03
DAV:  16    -0.267671738701E+02    0.13002E-06   -0.44672E-07 11108   0.720E-03    0.166E-03
DAV:  17    -0.267671737294E+02    0.14071E-06   -0.58688E-08  9968   0.391E-03    0.802E-04
DAV:  18    -0.267671736547E+02    0.74735E-07   -0.16949E-08  5636   0.159E-03    0.150E-04
DAV:  19    -0.267671736281E+02    0.26639E-07   -0.41488E-09  5284   0.600E-04    0.104E-04
DAV:  20    -0.267671736331E+02   -0.50750E-08   -0.72928E-10  5244   0.387E-04
   1 F= -.26767174E+02 E0= -.26766810E+02  d E =-.267672E+02  mag=    -0.0000
 curvature:   0.00 expect dE= 0.000E+00 dE for cont linesearch  0.000E+00
 trial: gam= 0.00000 g(F)=  0.152E+00 g(S)=  0.120E+01 ort = 0.000E+00 (trialstep = 0.100E+01)
 search vector abs. value=  0.135E+01
 bond charge predicted
       N       E                     dE             d eps       ncg     rms          rms(c)
DAV:   1    -0.925027839712E+02   -0.65736E+02   -0.73282E+02  9952   0.392E+02    0.658E+01
DAV:   2    -0.635686631184E+02    0.28934E+02   -0.50806E+02 11512   0.234E+02    0.516E+01
DAV:   3    -0.328921443767E+02    0.30677E+02   -0.17773E+02 11416   0.154E+02    0.241E+01
DAV:   4    -0.276601187690E+02    0.52320E+01   -0.26331E+01 11496   0.644E+01    0.677E+00
DAV:   5    -0.274775725651E+02    0.18255E+00   -0.23847E+00 12000   0.207E+01    0.484E+00
DAV:   6    -0.271991584934E+02    0.27841E+00   -0.24408E+00 10496   0.200E+01    0.434E+00
DAV:   7    -0.270219651815E+02    0.17719E+00   -0.54290E-01 11000   0.878E+00    0.505E-01
DAV:   8    -0.270221339571E+02   -0.16878E-03   -0.11637E-02 10308   0.959E-01    0.483E-01
DAV:   9    -0.270196478596E+02    0.24861E-02   -0.58514E-03 11372   0.914E-01    0.939E-02
DAV:  10    -0.270196066971E+02    0.41163E-04   -0.36849E-04 12052   0.194E-01    0.211E-02
DAV:  11    -0.270196111817E+02   -0.44846E-05   -0.29295E-05 10564   0.621E-02    0.722E-03
DAV:  12    -0.270196121112E+02   -0.92956E-06   -0.24217E-06 10652   0.244E-02    0.188E-03
DAV:  13    -0.270196122722E+02   -0.16099E-06   -0.20394E-07 10876   0.430E-03    0.955E-04
DAV:  14    -0.270196122550E+02    0.17268E-07   -0.28777E-08  7456   0.188E-03    0.155E-04
DAV:  15    -0.270196122772E+02   -0.22226E-07   -0.26651E-09  5408   0.558E-04    0.130E-04
DAV:  16    -0.270196122772E+02    0.18190E-11   -0.14756E-09  5292   0.479E-04
   2 F= -.27019612E+02 E0= -.27019807E+02  d E =-.252439E+00  mag=    -0.0000
 trial-energy change:   -0.252439  1 .order   -0.308284   -1.354693    0.738124
 step:   0.6092(harm=  0.6473)  dis= 0.02845  next Energy=   -27.167180 (dE=-0.400E+00)
 bond charge predicted
       N       E                     dE             d eps       ncg     rms          rms(c)
DAV:   1    -0.405769708670E+02   -0.13557E+02   -0.12421E+02 10472   0.136E+02    0.379E+01
DAV:   2    -0.552831386430E+02   -0.14706E+02   -0.21959E+02 10536   0.194E+02    0.397E+01
DAV:   3    -0.276158527052E+02    0.27667E+02   -0.71814E+01 10656   0.109E+02    0.524E+00
DAV:   4    -0.275594981470E+02    0.56355E-01   -0.15374E+00 10240   0.796E+00    0.403E+00
DAV:   5    -0.273463860534E+02    0.21311E+00   -0.54063E-01 12992   0.134E+01    0.437E+00
DAV:   6    -0.272150239979E+02    0.13136E+00   -0.50773E-01 12232   0.145E+01    0.227E+00
DAV:   7    -0.271600978363E+02    0.54926E-01   -0.18936E-01 11808   0.537E+00    0.351E-01
DAV:   8    -0.271590553345E+02    0.10425E-02   -0.20738E-02 10408   0.141E+00    0.136E-01
DAV:   9    -0.271590709427E+02   -0.15608E-04   -0.22729E-03 10948   0.586E-01    0.917E-02
DAV:  10    -0.271590372845E+02    0.33658E-04   -0.29168E-04 10888   0.224E-01    0.202E-02
DAV:  11    -0.271590346440E+02    0.26405E-05   -0.18988E-05 11660   0.721E-02    0.706E-03
DAV:  12    -0.271590339298E+02    0.71419E-06   -0.18388E-06 13340   0.196E-02    0.365E-03
DAV:  13    -0.271590337537E+02    0.17614E-06   -0.82334E-07 11336   0.138E-02    0.148E-03
DAV:  14    -0.271590337529E+02    0.75124E-09   -0.86112E-08  9216   0.498E-03
   3 F= -.27159034E+02 E0= -.27158936E+02  d E =-.391860E+00  mag=    -0.0000
 curvature:  -0.32 expect dE=-0.437E-01 dE for cont linesearch -0.769E-05
 trial: gam= 0.10506 g(F)=  0.460E-01 g(S)=  0.906E-01 ort =-0.571E-02 (trialstep = 0.922E+00)
 search vector abs. value=  0.150E+00
 bond charge predicted
       N       E                     dE             d eps       ncg     rms          rms(c)
DAV:   1    -0.275874603956E+02   -0.42843E+00   -0.16956E+01 12784   0.841E+01    0.739E+00
DAV:   2    -0.279146887838E+02   -0.32723E+00   -0.76132E+00 10848   0.329E+01    0.725E+00
DAV:   3    -0.273486933184E+02    0.56600E+00   -0.21839E+00 10832   0.200E+01    0.280E+00
DAV:   4    -0.274514510958E+02   -0.10276E+00   -0.10775E+00 11888   0.190E+01    0.516E+00
DAV:   5    -0.272551024228E+02    0.19635E+00   -0.42669E-01 11880   0.133E+01    0.277E-01
DAV:   6    -0.272577274303E+02   -0.26250E-02   -0.39727E-02 10536   0.164E+00    0.180E-01
DAV:   7    -0.272576668871E+02    0.60543E-04   -0.17471E-03 12232   0.736E-01    0.727E-02
DAV:   8    -0.272577018122E+02   -0.34925E-04   -0.21776E-04 11824   0.254E-01    0.282E-02
DAV:   9    -0.272576987731E+02    0.30391E-05   -0.32643E-05 12896   0.102E-01    0.766E-03
DAV:  10    -0.272576982128E+02    0.56027E-06   -0.27475E-06 10592   0.189E-02    0.141E-03
DAV:  11    -0.272576981045E+02    0.10838E-06   -0.20485E-07 10776   0.446E-03    0.609E-04
DAV:  12    -0.272576981044E+02    0.11096E-09   -0.21265E-08  6456   0.234E-03
   4 F= -.27257698E+02 E0= -.27257752E+02  d E =-.986644E-01  mag=    -0.0000
 trial-energy change:   -0.098664  1 .order   -0.097884   -0.125382   -0.070386
 step:   1.9236(harm=  2.1016)  dis= 0.05256  next Energy=   -27.296945 (dE=-0.138E+00)
 bond charge predicted
       N       E                     dE             d eps       ncg     rms          rms(c)
DAV:   1    -0.277377988125E+02   -0.48010E+00   -0.20512E+01 12840   0.918E+01    0.831E+00
DAV:   2    -0.281569232889E+02   -0.41912E+00   -0.96120E+00 10864   0.374E+01    0.815E+00
DAV:   3    -0.274077286977E+02    0.74919E+00   -0.27142E+00 10768   0.232E+01    0.307E+00
DAV:   4    -0.275270189429E+02   -0.11929E+00   -0.12951E+00 11856   0.207E+01    0.539E+00
DAV:   5    -0.272967103288E+02    0.23031E+00   -0.47016E-01 12100   0.144E+01    0.360E-01
DAV:   6    -0.272997663948E+02   -0.30561E-02   -0.50394E-02 10632   0.192E+00    0.215E-01
DAV:   7    -0.272996763814E+02    0.90013E-04   -0.25500E-03 11672   0.905E-01    0.816E-02
DAV:   8    -0.272997209595E+02   -0.44578E-04   -0.31551E-04 12104   0.294E-01    0.364E-02
DAV:   9    -0.272997142125E+02    0.67470E-05   -0.53444E-05 12580   0.135E-01    0.895E-03
DAV:  10    -0.272997138310E+02    0.38152E-06   -0.44997E-06 10592   0.263E-02    0.183E-03
DAV:  11    -0.272997136930E+02    0.13802E-06   -0.32707E-07 10832   0.609E-03    0.618E-04
DAV:  12    -0.272997136856E+02    0.73414E-08   -0.36743E-08  8072   0.310E-03
   5 F= -.27299714E+02 E0= -.27299656E+02  d E =-.140680E+00  mag=    -0.0000
 curvature:  -1.14 expect dE=-0.214E-01 dE for cont linesearch -0.185E-03
 ZBRENT: extrapolating
 opt :   1.9932  next Energy=   -27.299886 (dE=-0.141E+00)
 bond charge predicted
       N       E                     dE             d eps       ncg     rms          rms(c)
DAV:   1    -0.273021510466E+02   -0.24374E-02   -0.10153E-01 12844   0.632E+00    0.574E-01
DAV:   2    -0.273038253415E+02   -0.16743E-02   -0.45254E-02 10844   0.268E+00    0.558E-01
DAV:   3    -0.273004921384E+02    0.33332E-02   -0.13100E-02 10796   0.158E+00    0.234E-01
DAV:   4    -0.273009717712E+02   -0.47963E-03   -0.58699E-03 11948   0.160E+00    0.382E-01
DAV:   5    -0.272998673840E+02    0.11044E-02   -0.28700E-03 12440   0.116E+00    0.177E-02
DAV:   6    -0.272998813401E+02   -0.13956E-04   -0.20961E-04 10348   0.123E-01    0.110E-02
DAV:   7    -0.272998806573E+02    0.68272E-06   -0.57155E-06 13772   0.347E-02    0.527E-03
DAV:   8    -0.272998804885E+02    0.16885E-06   -0.88790E-07 10840   0.120E-02    0.159E-03
DAV:   9    -0.272998804309E+02    0.57553E-07   -0.97983E-08 11516   0.559E-03    0.526E-04
DAV:  10    -0.272998804066E+02    0.24334E-07   -0.92773E-09  5492   0.110E-03    0.683E-05
DAV:  11    -0.272998804018E+02    0.48094E-08   -0.20213E-09  5300   0.537E-04
   6 F= -.27299880E+02 E0= -.27299833E+02  d E =-.140847E+00  mag=    -0.0000
 curvature:  -1.05 expect dE=-0.212E-01 dE for cont linesearch -0.958E-06
 trial: gam= 0.15096 g(F)=  0.143E-01 g(S)=  0.583E-02 ort =-0.370E-03 (trialstep = 0.114E+01)
 search vector abs. value=  0.234E-01
 bond charge predicted
       N       E                     dE             d eps       ncg     rms          rms(c)
DAV:   1    -0.270724664525E+02    0.22741E+00   -0.82421E+00 13400   0.991E+01    0.242E+00
DAV:   2    -0.273457898421E+02   -0.27332E+00   -0.33540E+00 10144   0.161E+01    0.170E+00
DAV:   3    -0.273558522391E+02   -0.10062E-01   -0.29889E-01 13340   0.102E+01    0.212E+00
DAV:   4    -0.273220249740E+02    0.33827E-01   -0.11522E-01 12248   0.677E+00    0.803E-01
DAV:   5    -0.273159455165E+02    0.60795E-02   -0.34926E-02 11048   0.286E+00    0.301E-01
DAV:   6    -0.273151415593E+02    0.80396E-03   -0.47926E-03 10544   0.106E+00    0.672E-02
DAV:   7    -0.273151221570E+02    0.19402E-04   -0.44864E-04 11572   0.318E-01    0.405E-02
DAV:   8    -0.273151186256E+02    0.35315E-05   -0.69281E-05 12084   0.138E-01    0.119E-02
DAV:   9    -0.273151204359E+02   -0.18104E-05   -0.75848E-06 11048   0.354E-02    0.239E-03
DAV:  10    -0.273151204335E+02    0.24065E-08   -0.47845E-07 11176   0.788E-03    0.790E-04
DAV:  11    -0.273151204122E+02    0.21353E-07   -0.40497E-08  9320   0.239E-03    0.166E-04
DAV:  12    -0.273151204148E+02   -0.26157E-08   -0.29035E-09  5380   0.759E-04
   7 F= -.27315120E+02 E0= -.27315193E+02  d E =-.152400E-01  mag=     0.0000
 trial-energy change:   -0.015240  1 .order   -0.015292   -0.022751   -0.007833
 step:   1.7525(harm=  1.7326)  dis= 0.02631  next Energy=   -27.317237 (dE=-0.174E-01)
 bond charge predicted
       N       E                     dE             d eps       ncg     rms          rms(c)
DAV:   1    -0.272457410362E+02    0.69379E-01   -0.24124E+00 13536   0.534E+01    0.131E+00
DAV:   2    -0.273260364511E+02   -0.80295E-01   -0.98749E-01 10088   0.874E+00    0.894E-01
DAV:   3    -0.273290315923E+02   -0.29951E-02   -0.80946E-02 13232   0.575E+00    0.116E+00
DAV:   4    -0.273191504165E+02    0.98812E-02   -0.37443E-02 12288   0.402E+00    0.435E-01
DAV:   5    -0.273174798721E+02    0.16705E-02   -0.10272E-02 11328   0.155E+00    0.164E-01
DAV:   6    -0.273172359055E+02    0.24397E-03   -0.13783E-03 10528   0.555E-01    0.361E-02
DAV:   7    -0.273172321984E+02    0.37071E-05   -0.11292E-04 11864   0.155E-01    0.203E-02
DAV:   8    -0.273172319629E+02    0.23551E-06   -0.17196E-05 11816   0.661E-02    0.624E-03
DAV:   9    -0.273172325117E+02   -0.54877E-06   -0.19257E-06 10984   0.177E-02    0.113E-03
DAV:  10    -0.273172325185E+02   -0.68558E-08   -0.11304E-07 10728   0.364E-03    0.389E-04
DAV:  11    -0.273172325172E+02    0.12824E-08   -0.85794E-09  5580   0.122E-03
   8 F= -.27317233E+02 E0= -.27317341E+02  d E =-.173521E-01  mag=    -0.0000
 curvature:  -1.01 expect dE=-0.294E-02 dE for cont linesearch -0.267E-06
 trial: gam= 0.11876 g(F)=  0.424E-03 g(S)=  0.248E-02 ort =-0.786E-04 (trialstep = 0.126E+01)
 search vector abs. value=  0.321E-02
 bond charge predicted
       N       E                     dE             d eps       ncg     rms          rms(c)
DAV:   1    -0.274039865564E+02   -0.86754E-01   -0.11937E+00 10792   0.163E+01    0.300E+00
DAV:   2    -0.274955391008E+02   -0.91553E-01   -0.13400E+00 10768   0.150E+01    0.379E+00
DAV:   3    -0.273240561829E+02    0.17148E+00   -0.53221E-01 10672   0.961E+00    0.665E-01
DAV:   4    -0.273296712528E+02   -0.56151E-02   -0.57335E-02 12392   0.509E+00    0.116E+00
DAV:   5    -0.273194123558E+02    0.10259E-01   -0.26944E-02 12336   0.333E+00    0.124E-01
DAV:   6    -0.273194509079E+02   -0.38552E-04   -0.22704E-03 10512   0.402E-01    0.420E-02
DAV:   7    -0.273194398883E+02    0.11020E-04   -0.75939E-05 13400   0.138E-01    0.172E-02
DAV:   8    -0.273194390779E+02    0.81035E-06   -0.11784E-05 10736   0.479E-02    0.503E-03
DAV:   9    -0.273194385423E+02    0.53566E-06   -0.12497E-06 10728   0.201E-02    0.140E-03
DAV:  10    -0.273194383971E+02    0.14514E-06   -0.94213E-08 10832   0.345E-03    0.313E-04
DAV:  11    -0.273194383826E+02    0.14510E-07   -0.57104E-09  5512   0.869E-04    0.126E-04
DAV:  12    -0.273194383716E+02    0.11032E-07   -0.15695E-09  5328   0.489E-04    0.511E-05
DAV:  13    -0.273194383723E+02   -0.73487E-09   -0.44982E-10  5216   0.238E-04
   9 F= -.27319438E+02 E0= -.27319607E+02  d E =-.220586E-02  mag=     0.0000
 trial-energy change:   -0.002206  1 .order   -0.002192   -0.003645   -0.000739
 step:   1.5685(harm=  1.5796)  dis= 0.00630  next Energy=   -27.319529 (dE=-0.230E-02)
 bond charge predicted
       N       E                     dE             d eps       ncg     rms          rms(c)
DAV:   1    -0.273246353221E+02   -0.51970E-02   -0.72490E-02 10776   0.401E+00    0.736E-01
DAV:   2    -0.273301829020E+02   -0.55476E-02   -0.81834E-02 10752   0.368E+00    0.933E-01
DAV:   3    -0.273198259879E+02    0.10357E-01   -0.32134E-02 10672   0.233E+00    0.167E-01
DAV:   4    -0.273201478810E+02   -0.32189E-03   -0.33890E-03 12664   0.116E+00    0.287E-01
DAV:   5    -0.273195285084E+02    0.61937E-03   -0.16467E-03 12552   0.861E-01    0.287E-02
DAV:   6    -0.273195310689E+02   -0.25606E-05   -0.12953E-04 10480   0.988E-02    0.102E-02
DAV:   7    -0.273195300566E+02    0.10123E-05   -0.44464E-06 13248   0.343E-02    0.424E-03
DAV:   8    -0.273195297326E+02    0.32402E-06   -0.65822E-07 10712   0.109E-02    0.114E-03
DAV:   9    -0.273195296488E+02    0.83819E-07   -0.59636E-08  9448   0.427E-03    0.333E-04
DAV:  10    -0.273195296099E+02    0.38937E-07   -0.51352E-09  5376   0.784E-04    0.505E-05
DAV:  11    -0.273195296066E+02    0.32251E-08   -0.96561E-10  5248   0.362E-04
  10 F= -.27319530E+02 E0= -.27319708E+02  d E =-.229709E-02  mag=    -0.0000
 curvature:  -0.88 expect dE=-0.227E-02 dE for cont linesearch -0.839E-08
 trial: gam= 0.88780 g(F)=  0.248E-03 g(S)=  0.235E-02 ort = 0.555E-05 (trialstep = 0.827E+00)
 search vector abs. value=  0.514E-02
 bond charge predicted
       N       E                     dE             d eps       ncg     rms          rms(c)
DAV:   1    -0.273609252353E+02   -0.41396E-01   -0.72623E-01 10792   0.109E+01    0.196E+00
DAV:   2    -0.273862268442E+02   -0.25302E-01   -0.51148E-01 10712   0.914E+00    0.233E+00
DAV:   3    -0.273244207052E+02    0.61806E-01   -0.19249E-01 10728   0.574E+00    0.538E-01
DAV:   4    -0.273277495551E+02   -0.33288E-02   -0.34531E-02 12592   0.389E+00    0.976E-01
DAV:   5    -0.273208463720E+02    0.69032E-02   -0.18674E-02 11752   0.287E+00    0.749E-02
DAV:   6    -0.273209114096E+02   -0.65038E-04   -0.14804E-03 10480   0.319E-01    0.366E-02
DAV:   7    -0.273209034619E+02    0.79477E-05   -0.64066E-05 12840   0.141E-01    0.149E-02
DAV:   8    -0.273209039061E+02   -0.44418E-06   -0.10759E-05 11056   0.491E-02    0.568E-03
DAV:   9    -0.273209038107E+02    0.95368E-07   -0.11009E-06 11128   0.191E-02    0.121E-03
DAV:  10    -0.273209039085E+02   -0.97791E-07   -0.97384E-08 10200   0.313E-03    0.198E-04
DAV:  11    -0.273209039311E+02   -0.22590E-07   -0.59472E-09  5472   0.987E-04    0.101E-04
DAV:  12    -0.273209039399E+02   -0.87803E-08   -0.12105E-09  5304   0.419E-04
  11 F= -.27320904E+02 E0= -.27321089E+02  d E =-.137433E-02  mag=    -0.0000
 trial-energy change:   -0.001374  1 .order   -0.001384   -0.002149   -0.000619
 step:   1.1807(harm=  1.1616)  dis= 0.00511  next Energy=   -27.321036 (dE=-0.151E-02)
 bond charge predicted
       N       E                     dE             d eps       ncg     rms          rms(c)
DAV:   1    -0.273283600722E+02   -0.74561E-02   -0.13265E-01 11264   0.465E+00    0.836E-01
DAV:   2    -0.273328892019E+02   -0.45291E-02   -0.91239E-02 10688   0.387E+00    0.994E-01
DAV:   3    -0.273216580438E+02    0.11231E-01   -0.35231E-02 10712   0.244E+00    0.226E-01
DAV:   4    -0.273221978570E+02   -0.53981E-03   -0.58699E-03 12920   0.153E+00    0.409E-01
DAV:   5    -0.273210166488E+02    0.11812E-02   -0.33326E-03 11776   0.125E+00    0.310E-02
DAV:   6    -0.273210273591E+02   -0.10710E-04   -0.25473E-04 10512   0.132E-01    0.152E-02
DAV:   7    -0.273210259362E+02    0.14229E-05   -0.10397E-05 12688   0.564E-02    0.596E-03
DAV:   8    -0.273210260298E+02   -0.93652E-07   -0.16757E-06 10928   0.185E-02    0.200E-03
DAV:   9    -0.273210260649E+02   -0.35108E-07   -0.15121E-07 11232   0.679E-03    0.459E-04
DAV:  10    -0.273210261054E+02   -0.40478E-07   -0.11868E-08  5464   0.120E-03    0.834E-05
DAV:  11    -0.273210261148E+02   -0.93751E-08   -0.23986E-09  5280   0.580E-04
  12 F= -.27321026E+02 E0= -.27321205E+02  d E =-.149651E-02  mag=     0.0000
 curvature:  -1.14 expect dE=-0.566E-03 dE for cont linesearch -0.469E-06
 trial: gam= 0.19516 g(F)=  0.173E-03 g(S)=  0.321E-03 ort =-0.459E-04 (trialstep = 0.898E+00)
 search vector abs. value=  0.672E-03
 bond charge predicted
       N       E                     dE             d eps       ncg     rms          rms(c)
DAV:   1    -0.273186931432E+02    0.23330E-02   -0.12318E-01 11616   0.109E+01    0.443E-01
DAV:   2    -0.273230408302E+02   -0.43477E-02   -0.62141E-02 10400   0.257E+00    0.362E-01
DAV:   3    -0.273220823387E+02    0.95849E-03   -0.70058E-03 11408   0.133E+00    0.254E-01
DAV:   4    -0.273220622192E+02    0.20119E-04   -0.42856E-03 11440   0.138E+00    0.284E-01
DAV:   5    -0.273213897960E+02    0.67242E-03   -0.19318E-03 12248   0.893E-01    0.261E-02
DAV:   6    -0.273213943231E+02   -0.45271E-05   -0.16363E-04 10344   0.137E-01    0.935E-03
DAV:   7    -0.273213937215E+02    0.60161E-06   -0.85097E-06 12880   0.364E-02    0.527E-03
DAV:   8    -0.273213936166E+02    0.10485E-06   -0.99684E-07 10720   0.109E-02    0.157E-03
DAV:   9    -0.273213935734E+02    0.43234E-07   -0.89050E-08 12496   0.353E-03    0.456E-04
DAV:  10    -0.273213935690E+02    0.44038E-08   -0.55309E-09  5432   0.138E-03
  13 F= -.27321394E+02 E0= -.27321524E+02  d E =-.367454E-03  mag=    -0.0000
 trial-energy change:   -0.000367  1 .order   -0.000371   -0.000436   -0.000306
 step:   3.0170(harm=  3.0170)  dis= 0.00636  next Energy=   -27.321758 (dE=-0.732E-03)
 bond charge predicted
       N       E                     dE             d eps       ncg     rms          rms(c)
DAV:   1    -0.273071816342E+02    0.14212E-01   -0.69188E-01 11688   0.259E+01    0.106E+00
DAV:   2    -0.273313764308E+02   -0.24195E-01   -0.34524E-01 10408   0.607E+00    0.870E-01
DAV:   3    -0.273255426303E+02    0.58338E-02   -0.39436E-02 11296   0.316E+00    0.587E-01
DAV:   4    -0.273257183203E+02   -0.17569E-03   -0.24275E-02 11544   0.345E+00    0.694E-01
DAV:   5    -0.273218127292E+02    0.39056E-02   -0.11094E-02 12128   0.220E+00    0.616E-02
DAV:   6    -0.273218375536E+02   -0.24824E-04   -0.91956E-04 10360   0.320E-01    0.219E-02
DAV:   7    -0.273218352420E+02    0.23116E-05   -0.45859E-05 13192   0.828E-02    0.122E-02
DAV:   8    -0.273218352067E+02    0.35321E-07   -0.52113E-06 10664   0.247E-02    0.383E-03
DAV:   9    -0.273218351709E+02    0.35780E-07   -0.50527E-07 12952   0.898E-03    0.110E-03
DAV:  10    -0.273218351508E+02    0.20102E-07   -0.36940E-08  8464   0.350E-03    0.220E-04
DAV:  11    -0.273218351377E+02    0.13129E-07   -0.64674E-09  5536   0.105E-03    0.121E-04
DAV:  12    -0.273218351388E+02   -0.10823E-08   -0.14535E-09  5256   0.476E-04
  14 F= -.27321835E+02 E0= -.27321743E+02  d E =-.809024E-03  mag=     0.0000
 curvature:  -2.09 expect dE=-0.499E-03 dE for cont linesearch -0.325E-04
 ZBRENT: extrapolating
 opt :   3.9253  next Energy=   -27.321882 (dE=-0.855E-03)
 bond charge predicted
       N       E                     dE             d eps       ncg     rms          rms(c)
DAV:   1    -0.273191608959E+02    0.26742E-02   -0.12678E-01 11640   0.111E+01    0.457E-01
DAV:   2    -0.273236997585E+02   -0.45389E-02   -0.64369E-02 10400   0.263E+00    0.381E-01
DAV:   3    -0.273225803367E+02    0.11194E-02   -0.75491E-03 11336   0.135E+00    0.252E-01
DAV:   4    -0.273226295823E+02   -0.49246E-04   -0.44466E-03 11528   0.138E+00    0.302E-01
DAV:   5    -0.273219022028E+02    0.72738E-03   -0.20683E-03 12088   0.930E-01    0.271E-02
DAV:   6    -0.273219060698E+02   -0.38670E-05   -0.16899E-04 10376   0.138E-01    0.962E-03
DAV:   7    -0.273219054502E+02    0.61955E-06   -0.89178E-06 12912   0.366E-02    0.540E-03
DAV:   8    -0.273219053649E+02    0.85362E-07   -0.10075E-06 10752   0.108E-02    0.167E-03
DAV:   9    -0.273219053137E+02    0.51212E-07   -0.95546E-08 12624   0.381E-03    0.465E-04
DAV:  10    -0.273219053071E+02    0.65775E-08   -0.61065E-09  5512   0.146E-03
  15 F= -.27321905E+02 E0= -.27321687E+02  d E =-.879192E-03  mag=     0.0000
 curvature:  -2.98 expect dE=-0.128E-02 dE for cont linesearch -0.144E-04
 trial: gam= 0.84193 g(F)=  0.289E-03 g(S)=  0.140E-03 ort = 0.570E-04 (trialstep = 0.101E+01)
 search vector abs. value=  0.100E-02
 bond charge predicted
       N       E                     dE             d eps       ncg     rms          rms(c)
DAV:   1    -0.273249055621E+02   -0.30002E-02   -0.14128E-01 12080   0.601E+00    0.548E-01
DAV:   2    -0.273236691516E+02    0.12364E-02   -0.25183E-02 10552   0.194E+00    0.297E-01
DAV:   3    -0.273234161220E+02    0.25303E-03   -0.57039E-03 12328   0.110E+00    0.332E-01
DAV:   4    -0.273228267474E+02    0.58937E-03   -0.53087E-03 11528   0.146E+00    0.258E-01
DAV:   5    -0.273223749690E+02    0.45178E-03   -0.17284E-03 11568   0.846E-01    0.197E-02
DAV:   6    -0.273223785106E+02   -0.35416E-05   -0.12944E-04 10408   0.125E-01    0.112E-02
DAV:   7    -0.273223777187E+02    0.79192E-06   -0.92113E-06 12472   0.389E-02    0.640E-03
DAV:   8    -0.273223775327E+02    0.18600E-06   -0.15115E-06 11288   0.137E-02    0.160E-03
DAV:   9    -0.273223775462E+02   -0.13481E-07   -0.11507E-07 11408   0.386E-03    0.390E-04
DAV:  10    -0.273223775540E+02   -0.77562E-08   -0.62892E-09  5480   0.131E-03
  16 F= -.27322378E+02 E0= -.27322014E+02  d E =-.472247E-03  mag=    -0.0000
 ZBRENT: can't locate minimum, use default step
 trial-energy change:   -0.000472  1 .order   -0.000478   -0.000481   -0.000475
 step:   4.0334(harm= 78.8968)  dis= 0.01000  next Energy=   -27.340739 (dE=-0.188E-01)
 bond charge predicted
       N       E                     dE             d eps       ncg     rms          rms(c)
DAV:   1    -0.273464662095E+02   -0.24089E-01   -0.12730E+00 12208   0.180E+01    0.164E+00
DAV:   2    -0.273353264971E+02    0.11140E-01   -0.22547E-01 10560   0.570E+00    0.886E-01
DAV:   3    -0.273332412964E+02    0.20852E-02   -0.52533E-02 12640   0.343E+00    0.101E+00
DAV:   4    -0.273278111221E+02    0.54302E-02   -0.47667E-02 11632   0.454E+00    0.766E-01
DAV:   5    -0.273237846416E+02    0.40265E-02   -0.15429E-02 11832   0.260E+00    0.631E-02
DAV:   6    -0.273238069639E+02   -0.22322E-04   -0.11467E-03 10408   0.384E-01    0.334E-02
DAV:   7    -0.273238027327E+02    0.42312E-05   -0.85939E-05 12264   0.120E-01    0.196E-02
DAV:   8    -0.273238023806E+02    0.35212E-06   -0.14190E-05 11320   0.438E-02    0.504E-03
DAV:   9    -0.273238024632E+02   -0.82677E-07   -0.11692E-06 11168   0.127E-02    0.921E-04
DAV:  10    -0.273238024727E+02   -0.94951E-08   -0.60310E-08 10648   0.263E-03
  17 F= -.27323802E+02 E0= -.27323399E+02  d E =-.189717E-02  mag=    -0.0000
 curvature:  -6.30 expect dE=-0.111E-01 dE for cont linesearch -0.106E-02
 ZBRENT: increasing intervall
 opt :  10.0835  next Energy=   -27.325908 (dE=-0.400E-02)
 bond charge predicted
       N       E                     dE             d eps       ncg     rms          rms(c)
DAV:   1    -0.274172151807E+02   -0.93413E-01   -0.51062E+00 12496   0.357E+01    0.328E+00
DAV:   2    -0.273691852956E+02    0.48030E-01   -0.88823E-01 10536   0.111E+01    0.177E+00
DAV:   3    -0.273638052438E+02    0.53801E-02   -0.23360E-01 13112   0.759E+00    0.214E+00
DAV:   4    -0.273366919502E+02    0.27113E-01   -0.19133E-01 11712   0.870E+00    0.138E+00
DAV:   5    -0.273228224771E+02    0.13869E-01   -0.56775E-02 12200   0.446E+00    0.138E-01
DAV:   6    -0.273228738455E+02   -0.51368E-04   -0.44284E-03 10472   0.807E-01    0.673E-02
DAV:   7    -0.273228625742E+02    0.11271E-04   -0.37170E-04 12016   0.255E-01    0.404E-02
DAV:   8    -0.273228607616E+02    0.18126E-05   -0.61669E-05 11584   0.104E-01    0.106E-02
DAV:   9    -0.273228611798E+02   -0.41816E-06   -0.57295E-06 11592   0.335E-02    0.217E-03
DAV:  10    -0.273228611710E+02    0.87512E-08   -0.35474E-07 12152   0.801E-03    0.869E-04
DAV:  11    -0.273228611873E+02   -0.16251E-07   -0.54434E-08  9776   0.360E-03    0.227E-04
DAV:  12    -0.273228611957E+02   -0.84565E-08   -0.47819E-09  5424   0.114E-03
  18 F= -.27322861E+02 E0= -.27322475E+02  d E =-.955889E-03  mag=    -0.0000
 curvature: -12.57 expect dE=-0.145E+00 dE for cont linesearch -0.949E-02
 ZBRENT: bracketing found
 ZBRENT: interpolating
 opt :   5.9705  next Energy=   -27.324199 (dE=-0.229E-02)
 bond charge predicted
       N       E                     dE             d eps       ncg     rms          rms(c)
DAV:   1    -0.273688199689E+02   -0.45959E-01   -0.23647E+00 12800   0.246E+01    0.225E+00
DAV:   2    -0.273450755253E+02    0.23744E-01   -0.40322E-01 10496   0.767E+00    0.119E+00
DAV:   3    -0.273490433335E+02   -0.39678E-02   -0.12574E-01 13224   0.637E+00    0.183E+00
DAV:   4    -0.273300733630E+02    0.18970E-01   -0.13054E-01 11744   0.639E+00    0.867E-01
DAV:   5    -0.273242918764E+02    0.57815E-02   -0.21703E-02 12392   0.255E+00    0.767E-02
DAV:   6    -0.273243130473E+02   -0.21171E-04   -0.16963E-03 10848   0.463E-01    0.463E-02
DAV:   7    -0.273243104043E+02    0.26430E-05   -0.14943E-04 12144   0.158E-01    0.274E-02
DAV:   8    -0.273243109735E+02   -0.56923E-06   -0.26844E-05 10984   0.667E-02    0.603E-03
DAV:   9    -0.273243114764E+02   -0.50286E-06   -0.15284E-06 11632   0.111E-02    0.229E-03
DAV:  10    -0.273243114014E+02    0.74990E-07   -0.27982E-07 11728   0.711E-03    0.653E-04
DAV:  11    -0.273243113761E+02    0.25331E-07   -0.29910E-08  8120   0.278E-03    0.148E-04
DAV:  12    -0.273243113742E+02    0.18772E-08   -0.18398E-09  5320   0.596E-04
  19 F= -.27324311E+02 E0= -.27323932E+02  d E =-.240607E-02  mag=    -0.0000
 curvature:  -0.53 expect dE=-0.193E-02 dE for cont linesearch -0.353E-05
 trial: gam= 0.00000 g(F)=  0.597E-03 g(S)=  0.308E-02 ort = 0.821E-04 (trialstep = 0.545E+00)
 search vector abs. value=  0.368E-02
 bond charge predicted
       N       E                     dE             d eps       ncg     rms          rms(c)
DAV:   1    -0.273532310675E+02   -0.28920E-01   -0.35330E-01 10776   0.106E+01    0.174E+00
DAV:   2    -0.273847615424E+02   -0.31530E-01   -0.46456E-01 10720   0.877E+00    0.221E+00
DAV:   3    -0.273269617915E+02    0.57800E-01   -0.18063E-01 10576   0.547E+00    0.325E-01
DAV:   4    -0.273265269017E+02    0.43489E-03   -0.64244E-03 13416   0.124E+00    0.322E-01
DAV:   5    -0.273258738337E+02    0.65307E-03   -0.29300E-03 11808   0.110E+00    0.541E-02
DAV:   6    -0.273258595104E+02    0.14323E-04   -0.18901E-04 10800   0.188E-01    0.205E-02
DAV:   7    -0.273258547644E+02    0.47460E-05   -0.16119E-05 11904   0.480E-02    0.524E-03
DAV:   8    -0.273258543905E+02    0.37384E-06   -0.17880E-06 10712   0.187E-02    0.149E-03
DAV:   9    -0.273258541394E+02    0.25117E-06   -0.13947E-07 10880   0.515E-03    0.929E-04
DAV:  10    -0.273258540959E+02    0.43503E-07   -0.16189E-08  5624   0.267E-03    0.148E-04
DAV:  11    -0.273258540705E+02    0.25317E-07   -0.45010E-09  5312   0.610E-04    0.486E-05
DAV:  12    -0.273258540717E+02   -0.11460E-08   -0.10509E-09  5104   0.349E-04
  20 F= -.27325854E+02 E0= -.27325406E+02  d E =-.154270E-02  mag=     0.0000
 trial-energy change:   -0.001543  1 .order   -0.001544   -0.002004   -0.001084
 step:   1.1867(harm=  1.1867)  dis= 0.00342  next Energy=   -27.326495 (dE=-0.218E-02)
 bond charge predicted
       N       E                     dE             d eps       ncg     rms          rms(c)
DAV:   1    -0.273646527750E+02   -0.38799E-01   -0.49306E-01 10776   0.126E+01    0.205E+00
DAV:   2    -0.274077773218E+02   -0.43125E-01   -0.64329E-01 10712   0.103E+01    0.259E+00
DAV:   3    -0.273280429867E+02    0.79734E-01   -0.25008E-01 10584   0.645E+00    0.384E-01
DAV:   4    -0.273270414952E+02    0.10015E-02   -0.77067E-03 12584   0.123E+00    0.293E-01
DAV:   5    -0.273265488493E+02    0.49265E-03   -0.30440E-03 11856   0.112E+00    0.840E-02
DAV:   6    -0.273265024516E+02    0.46398E-04   -0.25561E-04 11712   0.274E-01    0.244E-02
DAV:   7    -0.273264964664E+02    0.59851E-05   -0.27162E-05 11152   0.608E-02    0.527E-03
DAV:   8    -0.273264960661E+02    0.40039E-06   -0.21167E-06 10752   0.207E-02    0.174E-03
DAV:   9    -0.273264957722E+02    0.29382E-06   -0.16668E-07 11080   0.540E-03    0.938E-04
DAV:  10    -0.273264957177E+02    0.54493E-07   -0.19310E-08  5760   0.290E-03    0.142E-04
DAV:  11    -0.273264956898E+02    0.27916E-07   -0.52390E-09  5320   0.657E-04    0.530E-05
DAV:  12    -0.273264956915E+02   -0.16789E-08   -0.11604E-09  5160   0.338E-04
  21 F= -.27326496E+02 E0= -.27325977E+02  d E =-.218432E-02  mag=    -0.0000
 curvature:  -0.59 expect dE=-0.176E-02 dE for cont linesearch -0.781E-08
 trial: gam= 0.80931 g(F)=  0.117E-03 g(S)=  0.285E-02 ort =-0.696E-05 (trialstep = 0.461E+00)
 search vector abs. value=  0.537E-02
 bond charge predicted
       N       E                     dE             d eps       ncg     rms          rms(c)
DAV:   1    -0.273314454938E+02   -0.49498E-02   -0.22561E-01 11992   0.972E+00    0.821E-01
DAV:   2    -0.273347167940E+02   -0.32713E-02   -0.96106E-02 10672   0.382E+00    0.734E-01
DAV:   3    -0.273289589376E+02    0.57579E-02   -0.21605E-02 10752   0.197E+00    0.316E-01
DAV:   4    -0.273298074630E+02   -0.84853E-03   -0.10345E-02 12696   0.202E+00    0.551E-01
DAV:   5    -0.273277035173E+02    0.21039E-02   -0.61024E-03 11872   0.166E+00    0.295E-02
DAV:   6    -0.273277250119E+02   -0.21495E-04   -0.42333E-04 10472   0.175E-01    0.181E-02
DAV:   7    -0.273277230047E+02    0.20072E-05   -0.18247E-05 13184   0.652E-02    0.927E-03
DAV:   8    -0.273277228323E+02    0.17241E-06   -0.34064E-06 10960   0.260E-02    0.342E-03
DAV:   9    -0.273277228330E+02   -0.68394E-09   -0.38463E-07 11608   0.110E-02    0.834E-04
DAV:  10    -0.273277228457E+02   -0.12753E-07   -0.37555E-08  9112   0.255E-03    0.194E-04
DAV:  11    -0.273277228607E+02   -0.14927E-07   -0.45332E-09  5208   0.103E-03    0.106E-04
DAV:  12    -0.273277228608E+02   -0.16371E-09   -0.78382E-10  5096   0.387E-04
  22 F= -.27327723E+02 E0= -.27327151E+02  d E =-.122717E-02  mag=    -0.0000
 ZBRENT: can't locate minimum, use default step
 trial-energy change:   -0.001227  1 .order   -0.001231   -0.001368   -0.001094
 step:   1.8447(harm=  2.3047)  dis= 0.00564  next Energy=   -27.329913 (dE=-0.342E-02)
 bond charge predicted
       N       E                     dE             d eps       ncg     rms          rms(c)
DAV:   1    -0.273619723956E+02   -0.34250E-01   -0.20252E+00 11856   0.291E+01    0.244E+00
DAV:   2    -0.273914695857E+02   -0.29497E-01   -0.86834E-01 10648   0.114E+01    0.218E+00
DAV:   3    -0.273407226995E+02    0.50747E-01   -0.18959E-01 10744   0.579E+00    0.926E-01
DAV:   4    -0.273452962946E+02   -0.45736E-02   -0.80696E-02 12992   0.581E+00    0.149E+00
DAV:   5    -0.273296960192E+02    0.15600E-01   -0.45669E-02 11816   0.414E+00    0.820E-02
DAV:   6    -0.273298508941E+02   -0.15487E-03   -0.32714E-03 10408   0.489E-01    0.530E-02
DAV:   7    -0.273298366244E+02    0.14270E-04   -0.14406E-04 13264   0.183E-01    0.267E-02
DAV:   8    -0.273298372963E+02   -0.67191E-06   -0.29771E-05 11008   0.796E-02    0.104E-02
DAV:   9    -0.273298370111E+02    0.28518E-06   -0.39258E-06 11096   0.359E-02    0.248E-03
DAV:  10    -0.273298370347E+02   -0.23558E-07   -0.39269E-07 11664   0.959E-03    0.674E-04
DAV:  11    -0.273298370731E+02   -0.38424E-07   -0.52320E-08  9496   0.354E-03    0.398E-04
DAV:  12    -0.273298370786E+02   -0.54970E-08   -0.59136E-09  5200   0.136E-03
  23 F= -.27329837E+02 E0= -.27329318E+02  d E =-.334139E-02  mag=     0.0000
 curvature:  -1.96 expect dE=-0.623E-02 dE for cont linesearch -0.151E-03
 ZBRENT: extrapolating
 opt :   2.3590  next Energy=   -27.330002 (dE=-0.351E-02)
 bond charge predicted
       N       E                     dE             d eps       ncg     rms          rms(c)
DAV:   1    -0.273343101099E+02   -0.44730E-02   -0.27806E-01 11936   0.108E+01    0.897E-01
DAV:   2    -0.273379839475E+02   -0.36738E-02   -0.11491E-01 10648   0.415E+00    0.781E-01
DAV:   3    -0.273315078300E+02    0.64761E-02   -0.24835E-02 10744   0.210E+00    0.344E-01
DAV:   4    -0.273319879913E+02   -0.48016E-03   -0.10615E-02 13048   0.198E+00    0.543E-01
DAV:   5    -0.273299783169E+02    0.20097E-02   -0.62833E-03 11760   0.165E+00    0.283E-02
DAV:   6    -0.273299984438E+02   -0.20127E-04   -0.42349E-04 10416   0.175E-01    0.187E-02
DAV:   7    -0.273299961173E+02    0.23265E-05   -0.17800E-05 13232   0.622E-02    0.949E-03
DAV:   8    -0.273299959757E+02    0.14158E-06   -0.34939E-06 10880   0.255E-02    0.324E-03
DAV:   9    -0.273299959879E+02   -0.12180E-07   -0.39071E-07 11416   0.108E-02    0.829E-04
DAV:  10    -0.273299960014E+02   -0.13511E-07   -0.38091E-08  9048   0.294E-03    0.183E-04
DAV:  11    -0.273299960160E+02   -0.14643E-07   -0.48815E-09  5184   0.104E-03    0.113E-04
DAV:  12    -0.273299960189E+02   -0.28613E-08   -0.93570E-10  5056   0.411E-04
  24 F= -.27329996E+02 E0= -.27329566E+02  d E =-.350033E-02  mag=     0.0000
 curvature:  -2.15 expect dE=-0.107E-01 dE for cont linesearch -0.231E-05
 trial: gam= 1.72677 g(F)=  0.223E-02 g(S)=  0.276E-02 ort =-0.761E-04 (trialstep = 0.218E+00)
 search vector abs. value=  0.207E-01
 bond charge predicted
       N       E                     dE             d eps       ncg     rms          rms(c)
DAV:   1    -0.273328253640E+02   -0.28293E-02   -0.18621E-01 12808   0.863E+00    0.622E-01
DAV:   2    -0.273328607454E+02   -0.35381E-04   -0.46688E-02 10408   0.244E+00    0.352E-01
DAV:   3    -0.273320862044E+02    0.77454E-03   -0.67905E-03 11144   0.105E+00    0.297E-01
DAV:   4    -0.273311519676E+02    0.93424E-03   -0.35665E-03 11672   0.883E-01    0.148E-01
DAV:   5    -0.273310497950E+02    0.10217E-03   -0.10595E-03 10752   0.626E-01    0.489E-02
DAV:   6    -0.273310313332E+02    0.18462E-04   -0.10156E-04 11168   0.171E-01    0.116E-02
DAV:   7    -0.273310305677E+02    0.76553E-06   -0.12177E-05 12112   0.416E-02    0.452E-03
DAV:   8    -0.273310306879E+02   -0.12020E-06   -0.12061E-06 11528   0.127E-02    0.187E-03
DAV:   9    -0.273310306006E+02    0.87311E-07   -0.13510E-07 11360   0.495E-03    0.353E-04
DAV:  10    -0.273310305936E+02    0.70231E-08   -0.10217E-08  5392   0.170E-03
  25 F= -.27331031E+02 E0= -.27330701E+02  d E =-.103457E-02  mag=    -0.0000
 ZBRENT: can't locate minimum, use default step
 trial-energy change:   -0.001035  1 .order   -0.001029   -0.001058   -0.001000
 step:   0.8707(harm=  3.9571)  dis= 0.00464  next Energy=   -27.339614 (dE=-0.962E-02)
 bond charge predicted
       N       E                     dE             d eps       ncg     rms          rms(c)
DAV:   1    -0.273502360600E+02   -0.19205E-01   -0.16843E+00 12792   0.260E+01    0.188E+00
DAV:   2    -0.273506473154E+02   -0.41126E-03   -0.42349E-01 10400   0.728E+00    0.107E+00
DAV:   3    -0.273432237140E+02    0.74236E-02   -0.61592E-02 11072   0.315E+00    0.890E-01
DAV:   4    -0.273339472580E+02    0.92765E-02   -0.29013E-02 11536   0.229E+00    0.321E-01
DAV:   5    -0.273336971606E+02    0.25010E-03   -0.73870E-03 10840   0.166E+00    0.188E-01
DAV:   6    -0.273334452396E+02    0.25192E-03   -0.10748E-03 11216   0.606E-01    0.333E-02
DAV:   7    -0.273334455568E+02   -0.31721E-06   -0.12613E-04 12000   0.129E-01    0.133E-02
DAV:   8    -0.273334474924E+02   -0.19355E-05   -0.11540E-05 12200   0.444E-02    0.610E-03
DAV:   9    -0.273334474568E+02    0.35581E-07   -0.12453E-06 11208   0.171E-02    0.975E-04
DAV:  10    -0.273334474163E+02    0.40474E-07   -0.10487E-07 11360   0.475E-03    0.372E-04
DAV:  11    -0.273334474066E+02    0.97443E-08   -0.77414E-09  5416   0.132E-03
  26 F= -.27333447E+02 E0= -.27333193E+02  d E =-.345139E-02  mag=     0.0000
 curvature:  -2.69 expect dE=-0.125E-01 dE for cont linesearch -0.784E-03
 ZBRENT: increasing intervall
 opt :   2.1767  next Energy=   -27.333868 (dE=-0.387E-02)
 bond charge predicted
       N       E                     dE             d eps       ncg     rms          rms(c)
DAV:   1    -0.274037131294E+02   -0.70266E-01   -0.68184E+00 12672   0.523E+01    0.378E+00
DAV:   2    -0.274072914700E+02   -0.35783E-02   -0.17231E+00 10400   0.147E+01    0.222E+00
DAV:   3    -0.273731242060E+02    0.34167E-01   -0.25455E-01 10928   0.648E+00    0.179E+00
DAV:   4    -0.273370325025E+02    0.36092E-01   -0.12568E-01 12072   0.495E+00    0.859E-01
DAV:   5    -0.273336032790E+02    0.34292E-02   -0.37157E-02 10752   0.354E+00    0.308E-01
DAV:   6    -0.273328975678E+02    0.70571E-03   -0.38508E-03 11016   0.107E+00    0.676E-02
DAV:   7    -0.273328916949E+02    0.58729E-05   -0.43489E-04 11768   0.243E-01    0.261E-02
DAV:   8    -0.273328996240E+02   -0.79291E-05   -0.39507E-05 11360   0.749E-02    0.110E-02
DAV:   9    -0.273329000429E+02   -0.41883E-06   -0.43860E-06 11224   0.277E-02    0.204E-03
DAV:  10    -0.273328999042E+02    0.13869E-06   -0.37251E-07 12040   0.941E-03    0.684E-04
DAV:  11    -0.273328998757E+02    0.28487E-07   -0.34772E-08  8888   0.270E-03    0.212E-04
DAV:  12    -0.273328998715E+02    0.42055E-08   -0.37376E-09  5288   0.801E-04
  27 F= -.27332900E+02 E0= -.27332429E+02  d E =-.290385E-02  mag=    -0.0000
 curvature:  -1.44 expect dE=-0.863E-02 dE for cont linesearch -0.428E-03
 ZBRENT: bracketing found
 ZBRENT: interpolating
 opt :   1.5208  next Energy=   -27.334246 (dE=-0.425E-02)
 bond charge predicted
       N       E                     dE             d eps       ncg     rms          rms(c)
DAV:   1    -0.273525828926E+02   -0.19683E-01   -0.17316E+00 12648   0.259E+01    0.190E+00
DAV:   2    -0.273542612533E+02   -0.16784E-02   -0.44395E-01 10384   0.775E+00    0.118E+00
DAV:   3    -0.273457084145E+02    0.85528E-02   -0.73772E-02 10944   0.410E+00    0.102E+00
DAV:   4    -0.273453774405E+02    0.33097E-03   -0.76814E-02 11992   0.549E+00    0.128E+00
DAV:   5    -0.273339094856E+02    0.11468E-01   -0.38578E-02 11888   0.393E+00    0.653E-02
DAV:   6    -0.273340549289E+02   -0.14544E-03   -0.25661E-03 10328   0.462E-01    0.426E-02
DAV:   7    -0.273340483723E+02    0.65566E-05   -0.10028E-04 13632   0.120E-01    0.198E-02
DAV:   8    -0.273340518616E+02   -0.34893E-05   -0.16362E-05 10736   0.455E-02    0.631E-03
DAV:   9    -0.273340521544E+02   -0.29286E-06   -0.13541E-06 12864   0.172E-02    0.193E-03
DAV:  10    -0.273340521797E+02   -0.25224E-07   -0.15289E-07 10968   0.518E-03    0.362E-04
DAV:  11    -0.273340521885E+02   -0.87839E-08   -0.16895E-08  5664   0.194E-03
  28 F= -.27334052E+02 E0= -.27333730E+02  d E =-.405617E-02  mag=     0.0000
 curvature:  -2.70 expect dE=-0.133E-01 dE for cont linesearch -0.523E-04
 trial: gam= 0.18112 g(F)=  0.263E-02 g(S)=  0.229E-02 ort =-0.634E-03 (trialstep = 0.478E+00)
 search vector abs. value=  0.538E-02
 bond charge predicted
       N       E                     dE             d eps       ncg     rms          rms(c)
DAV:   1    -0.273549828839E+02   -0.20931E-01   -0.24620E-01 11032   0.939E+00    0.146E+00
DAV:   2    -0.273764559485E+02   -0.21473E-01   -0.32734E-01 10552   0.736E+00    0.181E+00
DAV:   3    -0.273365861817E+02    0.39870E-01   -0.12373E-01 10488   0.462E+00    0.283E-01
DAV:   4    -0.273372238709E+02   -0.63769E-03   -0.81530E-03 12952   0.167E+00    0.429E-01
DAV:   5    -0.273358462771E+02    0.13776E-02   -0.37636E-03 12352   0.116E+00    0.395E-02
DAV:   6    -0.273358527070E+02   -0.64299E-05   -0.26362E-04 10464   0.142E-01    0.178E-02
DAV:   7    -0.273358496910E+02    0.30160E-05   -0.11575E-05 12832   0.570E-02    0.849E-03
DAV:   8    -0.273358491251E+02    0.56595E-06   -0.24934E-06 11248   0.219E-02    0.223E-03
DAV:   9    -0.273358489407E+02    0.18441E-06   -0.19158E-07 10784   0.717E-03    0.693E-04
DAV:  10    -0.273358488505E+02    0.90209E-07   -0.17263E-08  5984   0.149E-03    0.978E-05
DAV:  11    -0.273358488308E+02    0.19620E-07   -0.38107E-09  5280   0.761E-04    0.693E-05
DAV:  12    -0.273358488322E+02   -0.13752E-08   -0.84508E-10  5072   0.297E-04
  29 F= -.27335849E+02 E0= -.27335539E+02  d E =-.179664E-02  mag=    -0.0000
 trial-energy change:   -0.001797  1 .order   -0.001791   -0.002302   -0.001280
 step:   1.0353(harm=  1.0768)  dis= 0.00808  next Energy=   -27.336603 (dE=-0.255E-02)
 bond charge predicted
       N       E                     dE             d eps       ncg     rms          rms(c)
DAV:   1    -0.273626812481E+02   -0.26832E-01   -0.33488E-01 11120   0.109E+01    0.171E+00
DAV:   2    -0.273914337072E+02   -0.28752E-01   -0.44247E-01 10560   0.858E+00    0.209E+00
DAV:   3    -0.273376523113E+02    0.53781E-01   -0.16738E-01 10488   0.539E+00    0.333E-01
DAV:   4    -0.273384710023E+02   -0.81869E-03   -0.11044E-02 12920   0.197E+00    0.492E-01
DAV:   5    -0.273366367151E+02    0.18343E-02   -0.49490E-03 12392   0.132E+00    0.469E-02
DAV:   6    -0.273366443753E+02   -0.76602E-05   -0.35284E-04 10480   0.166E-01    0.206E-02
DAV:   7    -0.273366404207E+02    0.39545E-05   -0.15498E-05 12760   0.656E-02    0.980E-03
DAV:   8    -0.273366397383E+02    0.68246E-06   -0.33321E-06 11168   0.250E-02    0.263E-03
DAV:   9    -0.273366395158E+02    0.22252E-06   -0.25526E-07 10840   0.826E-03    0.819E-04
DAV:  10    -0.273366394113E+02    0.10450E-06   -0.25597E-08  7792   0.173E-03    0.114E-04
DAV:  11    -0.273366393899E+02    0.21366E-07   -0.32308E-09  5376   0.735E-04    0.661E-05
DAV:  12    -0.273366393872E+02    0.27521E-08   -0.68914E-10  5136   0.284E-04
  30 F= -.27336639E+02 E0= -.27336344E+02  d E =-.258720E-02  mag=    -0.0000
 curvature:  -0.60 expect dE=-0.928E-03 dE for cont linesearch -0.242E-05
 trial: gam= 0.25668 g(F)=  0.655E-03 g(S)=  0.895E-03 ort = 0.147E-03 (trialstep = 0.590E+00)
 search vector abs. value=  0.198E-02
 bond charge predicted
       N       E                     dE             d eps       ncg     rms          rms(c)
DAV:   1    -0.273466049130E+02   -0.99655E-02   -0.14638E-01 10568   0.942E+00    0.109E+00
DAV:   2    -0.273595252114E+02   -0.12920E-01   -0.19533E-01 10592   0.565E+00    0.133E+00
DAV:   3    -0.273376791599E+02    0.21846E-01   -0.70502E-02 10560   0.354E+00    0.237E-01
DAV:   4    -0.273376833430E+02   -0.41831E-05   -0.36637E-03 12992   0.107E+00    0.216E-01
DAV:   5    -0.273372777505E+02    0.40559E-03   -0.97163E-04 11792   0.579E-01    0.325E-02
DAV:   6    -0.273372746031E+02    0.31474E-05   -0.87960E-05 10440   0.902E-02    0.997E-03
DAV:   7    -0.273372746041E+02   -0.10659E-08   -0.10016E-05 11016   0.427E-02    0.866E-03
DAV:   8    -0.273372741875E+02    0.41663E-06   -0.28546E-06 10672   0.238E-02    0.170E-03
DAV:   9    -0.273372742841E+02   -0.96612E-07   -0.13997E-07 11280   0.477E-03    0.694E-04
DAV:  10    -0.273372743143E+02   -0.30192E-07   -0.16611E-08  5512   0.185E-03    0.122E-04
DAV:  11    -0.273372743304E+02   -0.16067E-07   -0.34043E-09  5256   0.689E-04    0.438E-05
DAV:  12    -0.273372743305E+02   -0.14916E-09   -0.59666E-10  5152   0.224E-04
  31 F= -.27337274E+02 E0= -.27336993E+02  d E =-.634943E-03  mag=    -0.0000
 trial-energy change:   -0.000635  1 .order   -0.000637   -0.000936   -0.000338
 step:   0.9330(harm=  0.9222)  dis= 0.00417  next Energy=   -27.337372 (dE=-0.733E-03)
 bond charge predicted
       N       E                     dE             d eps       ncg     rms          rms(c)
DAV:   1    -0.273405310272E+02   -0.32567E-02   -0.49555E-02 10576   0.548E+00    0.636E-01
DAV:   2    -0.273449046498E+02   -0.43736E-02   -0.65912E-02 10608   0.328E+00    0.776E-01
DAV:   3    -0.273375008217E+02    0.74038E-02   -0.23885E-02 10560   0.206E+00    0.136E-01
DAV:   4    -0.273375075857E+02   -0.67640E-05   -0.12253E-03 13048   0.609E-01    0.127E-01
DAV:   5    -0.273373687433E+02    0.13884E-03   -0.33720E-04 11808   0.349E-01    0.189E-02
DAV:   6    -0.273373680177E+02    0.72558E-06   -0.30084E-05 10464   0.524E-02    0.585E-03
DAV:   7    -0.273373681540E+02   -0.13628E-06   -0.34798E-06 11048   0.251E-02    0.515E-03
DAV:   8    -0.273373680478E+02    0.10617E-06   -0.10134E-06 10688   0.142E-02    0.102E-03
DAV:   9    -0.273373681095E+02   -0.61686E-07   -0.48959E-08  9160   0.285E-03    0.408E-04
DAV:  10    -0.273373681283E+02   -0.18814E-07   -0.61697E-09  5312   0.112E-03    0.729E-05
DAV:  11    -0.273373681387E+02   -0.10348E-07   -0.12995E-09  5168   0.424E-04    0.272E-05
DAV:  12    -0.273373681374E+02    0.12606E-08   -0.24568E-10  5112   0.153E-04
  32 F= -.27337368E+02 E0= -.27337095E+02  d E =-.728750E-03  mag=    -0.0000
 curvature:  -0.57 expect dE=-0.261E-03 dE for cont linesearch -0.929E-07
 trial: gam= 0.33867 g(F)=  0.248E-03 g(S)=  0.207E-03 ort =-0.179E-04 (trialstep = 0.658E+00)
 search vector abs. value=  0.670E-03
 bond charge predicted
       N       E                     dE             d eps       ncg     rms          rms(c)
DAV:   1    -0.273346669539E+02    0.27012E-02   -0.68506E-02 11432   0.102E+01    0.251E-01
DAV:   2    -0.273383628481E+02   -0.36959E-02   -0.40405E-02 10456   0.186E+00    0.248E-01
DAV:   3    -0.273377009330E+02    0.66192E-03   -0.40162E-03 10744   0.914E-01    0.102E-01
DAV:   4    -0.273376612799E+02    0.39653E-04   -0.35760E-04 12264   0.345E-01    0.690E-02
DAV:   5    -0.273376349698E+02    0.26310E-04   -0.43239E-05 10856   0.121E-01    0.438E-02
DAV:   6    -0.273376142210E+02    0.20749E-04   -0.64329E-05 11440   0.108E-01    0.724E-03
DAV:   7    -0.273376137626E+02    0.45845E-06   -0.83843E-06 10672   0.352E-02    0.525E-03
DAV:   8    -0.273376136009E+02    0.16167E-06   -0.98836E-07 10920   0.149E-02    0.954E-04
DAV:   9    -0.273376135868E+02    0.14092E-07   -0.65341E-08  9424   0.369E-03    0.411E-04
DAV:  10    -0.273376135746E+02    0.12156E-07   -0.64572E-09  5376   0.129E-03    0.649E-05
DAV:  11    -0.273376135704E+02    0.42292E-08   -0.12772E-09  5144   0.361E-04
  33 F= -.27337614E+02 E0= -.27337348E+02  d E =-.245433E-03  mag=    -0.0000
 trial-energy change:   -0.000245  1 .order   -0.000244   -0.000295   -0.000193
 step:   1.7112(harm=  1.8995)  dis= 0.00452  next Energy=   -27.337773 (dE=-0.405E-03)
 bond charge predicted
       N       E                     dE             d eps       ncg     rms          rms(c)
DAV:   1    -0.273303183517E+02    0.72952E-02   -0.17561E-01 11520   0.163E+01    0.402E-01
DAV:   2    -0.273397344370E+02   -0.94161E-02   -0.10306E-01 10448   0.297E+00    0.399E-01
DAV:   3    -0.273380049099E+02    0.17295E-02   -0.10247E-02 10696   0.145E+00    0.158E-01
DAV:   4    -0.273379153462E+02    0.89564E-04   -0.85406E-04 12360   0.529E-01    0.110E-01
DAV:   5    -0.273378491509E+02    0.66195E-04   -0.11416E-04 10888   0.201E-01    0.694E-02
DAV:   6    -0.273377983076E+02    0.50843E-04   -0.15874E-04 11416   0.171E-01    0.111E-02
DAV:   7    -0.273377974327E+02    0.87492E-06   -0.19650E-05 10704   0.531E-02    0.764E-03
DAV:   8    -0.273377970599E+02    0.37284E-06   -0.21422E-06 11064   0.220E-02    0.149E-03
DAV:   9    -0.273377970298E+02    0.30057E-07   -0.15103E-07 10744   0.547E-03    0.618E-04
DAV:  10    -0.273377970108E+02    0.19054E-07   -0.12239E-08  5624   0.182E-03    0.107E-04
DAV:  11    -0.273377970052E+02    0.55334E-08   -0.26279E-09  5232   0.425E-04
  34 F= -.27337797E+02 E0= -.27337545E+02  d E =-.428868E-03  mag=    -0.0000
 curvature:  -1.38 expect dE=-0.113E-03 dE for cont linesearch -0.395E-05
 trial: gam= 0.04457 g(F)=  0.548E-04 g(S)=  0.269E-04 ort = 0.437E-04 (trialstep = 0.869E+00)
 search vector abs. value=  0.869E-04
 bond charge predicted
       N       E                     dE             d eps       ncg     rms          rms(c)
DAV:   1    -0.273371264955E+02    0.67052E-03   -0.21513E-02 11672   0.537E+00    0.168E-01
DAV:   2    -0.273381623156E+02   -0.10358E-02   -0.12385E-02 10560   0.110E+00    0.160E-01
DAV:   3    -0.273378841395E+02    0.27818E-03   -0.13920E-03 10552   0.501E-01    0.587E-02
DAV:   4    -0.273378631735E+02    0.20966E-04   -0.11564E-04 13008   0.187E-01    0.470E-02
DAV:   5    -0.273378546332E+02    0.85403E-05   -0.11870E-04 11496   0.220E-01    0.336E-02
DAV:   6    -0.273378457952E+02    0.88380E-05   -0.26102E-05 13656   0.982E-02    0.307E-03
DAV:   7    -0.273378459302E+02   -0.13505E-06   -0.26949E-06 10544   0.159E-02    0.224E-03
DAV:   8    -0.273378458957E+02    0.34579E-07   -0.12646E-07 11136   0.575E-03    0.628E-04
DAV:   9    -0.273378459163E+02   -0.20606E-07   -0.13106E-08  5408   0.130E-03    0.211E-04
DAV:  10    -0.273378459279E+02   -0.11649E-07   -0.39741E-09  5144   0.899E-04    0.441E-05
DAV:  11    -0.273378459342E+02   -0.62773E-08   -0.77760E-10  5056   0.260E-04
  35 F= -.27337846E+02 E0= -.27337589E+02  d E =-.489289E-04  mag=    -0.0000
 trial-energy change:   -0.000049  1 .order   -0.000049   -0.000073   -0.000026
 step:   1.3595(harm=  1.3399)  dis= 0.00140  next Energy=   -27.337853 (dE=-0.561E-04)
 bond charge predicted
       N       E                     dE             d eps       ncg     rms          rms(c)
DAV:   1    -0.273376238354E+02    0.22209E-03   -0.68547E-03 11704   0.303E+00    0.949E-02
DAV:   2    -0.273379527894E+02   -0.32895E-03   -0.39454E-03 10560   0.618E-01    0.904E-02
DAV:   3    -0.273378644506E+02    0.88339E-04   -0.44412E-04 10544   0.283E-01    0.330E-02
DAV:   4    -0.273378575175E+02    0.69330E-05   -0.35502E-05 13056   0.102E-01    0.255E-02
DAV:   5    -0.273378554847E+02    0.20328E-05   -0.37677E-05 11560   0.124E-01    0.198E-02
DAV:   6    -0.273378525447E+02    0.29400E-05   -0.88263E-06 13568   0.578E-02    0.174E-03
DAV:   7    -0.273378525905E+02   -0.45820E-07   -0.88895E-07 10520   0.899E-03    0.128E-03
DAV:   8    -0.273378525759E+02    0.14623E-07   -0.40117E-08  9032   0.328E-03    0.370E-04
DAV:   9    -0.273378525881E+02   -0.12144E-07   -0.50711E-09  5208   0.807E-04    0.123E-04
DAV:  10    -0.273378525952E+02   -0.71886E-08   -0.15023E-09  5048   0.567E-04
  36 F= -.27337853E+02 E0= -.27337594E+02  d E =-.555900E-04  mag=     0.0000
 curvature:  -0.70 expect dE=-0.129E-04 dE for cont linesearch -0.166E-07
 trial: gam= 0.26916 g(F)=  0.189E-05 g(S)=  0.166E-04 ort =-0.144E-05 (trialstep = 0.967E+00)
 search vector abs. value=  0.241E-04
 bond charge predicted
       N       E                     dE             d eps       ncg     rms          rms(c)
DAV:   1    -0.273383877584E+02   -0.53517E-03   -0.97775E-03 10752   0.260E+00    0.272E-01
DAV:   2    -0.273392237599E+02   -0.83600E-03   -0.12189E-02 10600   0.140E+00    0.328E-01
DAV:   3    -0.273378872003E+02    0.13366E-02   -0.42927E-03 10552   0.865E-01    0.551E-02
DAV:   4    -0.273378899081E+02   -0.27079E-05   -0.19971E-04 13584   0.241E-01    0.579E-02
DAV:   5    -0.273378612991E+02    0.28609E-04   -0.78078E-05 11696   0.169E-01    0.881E-03
DAV:   6    -0.273378607610E+02    0.53808E-06   -0.64042E-06 10824   0.305E-02    0.265E-03
DAV:   7    -0.273378605325E+02    0.22847E-06   -0.10333E-06 10888   0.120E-02    0.246E-03
DAV:   8    -0.273378604582E+02    0.74375E-07   -0.30246E-07 10640   0.734E-03    0.435E-04
DAV:   9    -0.273378604095E+02    0.48702E-07   -0.12221E-08  5272   0.162E-03    0.166E-04
DAV:  10    -0.273378604030E+02    0.65029E-08   -0.22277E-09  5064   0.697E-04
  37 F= -.27337860E+02 E0= -.27337599E+02  d E =-.780773E-05  mag=    -0.0000
 trial-energy change:   -0.000008  1 .order   -0.000007   -0.000018    0.000003
 step:   0.8367(harm=  0.8147)  dis= 0.00033  next Energy=   -27.337861 (dE=-0.803E-05)
 bond charge predicted
       N       E                     dE             d eps       ncg     rms          rms(c)
DAV:   1    -0.273378703502E+02   -0.99407E-05   -0.17766E-04 10736   0.350E-01    0.366E-02
DAV:   2    -0.273378844898E+02   -0.14140E-04   -0.22233E-04 10624   0.188E-01    0.442E-02
DAV:   3    -0.273378608591E+02    0.23631E-04   -0.78157E-05 10552   0.117E-01    0.751E-03
DAV:   4    -0.273378609384E+02   -0.79350E-07   -0.36987E-06 13536   0.328E-02    0.777E-03
DAV:   5    -0.273378605072E+02    0.43123E-06   -0.13938E-06 11696   0.224E-02    0.118E-03
DAV:   6    -0.273378605342E+02   -0.26997E-07   -0.11320E-07  9344   0.403E-03    0.354E-04
DAV:   7    -0.273378605582E+02   -0.24029E-07   -0.17665E-08  5296   0.164E-03    0.326E-04
DAV:   8    -0.273378605615E+02   -0.33233E-08   -0.62638E-09  4992   0.112E-03
  38 F= -.27337861E+02 E0= -.27337600E+02  d E =-.796629E-05  mag=     0.0000
 curvature:  -0.53 expect dE=-0.361E-05 dE for cont linesearch -0.740E-09
 trial: gam= 0.33048 g(F)=  0.298E-05 g(S)=  0.385E-05 ort = 0.183E-06 (trialstep = 0.941E+00)
 search vector abs. value=  0.957E-05
 reached required accuracy - stopping structural energy minimisation
 writing wavefunctions
