   8   8   0   0
  0.1201521E+02  0.8368994E-09  0.8368994E-09  0.8368994E-09  0.5000000E-15
  1.000000000000000E-004
  CAR 
 unknown system                          
     23.09940590    -58.14257761  301      9.31163463      1.00000000
    -58.143  0.0000E+00  0.0000E+00  0.0000E+00  0.0000E+00
    -57.872  0.0000E+00  0.0000E+00  0.0000E+00  0.0000E+00
    -57.601  0.0000E+00  0.0000E+00  0.0000E+00  0.0000E+00
    -57.330  0.0000E+00  0.0000E+00  0.0000E+00  0.0000E+00
    -57.059  0.0000E+00  0.0000E+00  0.0000E+00  0.0000E+00
    -56.789  0.0000E+00  0.0000E+00  0.0000E+00  0.0000E+00
    -56.518  0.0000E+00  0.0000E+00  0.0000E+00  0.0000E+00
    -56.247  0.0000E+00  0.0000E+00  0.0000E+00  0.0000E+00
    -55.976  0.0000E+00  0.0000E+00  0.0000E+00  0.0000E+00
    -55.705  0.0000E+00  0.0000E+00  0.0000E+00  0.0000E+00
    -55.435  0.0000E+00  0.0000E+00  0.0000E+00  0.0000E+00
    -55.164  0.0000E+00  0.0000E+00  0.0000E+00  0.0000E+00
    -54.893  0.0000E+00  0.0000E+00  0.0000E+00  0.0000E+00
    -54.622  0.0000E+00  0.0000E+00  0.0000E+00  0.0000E+00
    -54.351  0.0000E+00  0.0000E+00  0.6000E+01  0.6000E+01
    -54.080  0.0000E+00  0.0000E+00  0.1200E+02  0.1200E+02
    -53.810  0.0000E+00  0.0000E+00  0.1200E+02  0.1200E+02
    -53.539  0.0000E+00  0.0000E+00  0.1200E+02  0.1200E+02
    -53.268  0.0000E+00  0.0000E+00  0.1200E+02  0.1200E+02
    -52.997  0.0000E+00  0.0000E+00  0.1200E+02  0.1200E+02
    -52.726  0.0000E+00  0.0000E+00  0.1200E+02  0.1200E+02
    -52.456  0.0000E+00  0.0000E+00  0.1200E+02  0.1200E+02
    -52.185  0.0000E+00  0.0000E+00  0.1200E+02  0.1200E+02
    -51.914  0.0000E+00  0.0000E+00  0.1200E+02  0.1200E+02
    -51.643  0.0000E+00  0.0000E+00  0.1200E+02  0.1200E+02
    -51.372  0.0000E+00  0.0000E+00  0.1200E+02  0.1200E+02
    -51.102  0.0000E+00  0.0000E+00  0.1200E+02  0.1200E+02
    -50.831  0.0000E+00  0.0000E+00  0.1200E+02  0.1200E+02
    -50.560  0.0000E+00  0.0000E+00  0.1200E+02  0.1200E+02
    -50.289  0.0000E+00  0.0000E+00  0.1200E+02  0.1200E+02
    -50.018  0.0000E+00  0.0000E+00  0.1200E+02  0.1200E+02
    -49.748  0.0000E+00  0.0000E+00  0.1200E+02  0.1200E+02
    -49.477  0.0000E+00  0.0000E+00  0.1200E+02  0.1200E+02
    -49.206  0.0000E+00  0.0000E+00  0.1200E+02  0.1200E+02
    -48.935  0.0000E+00  0.0000E+00  0.1200E+02  0.1200E+02
    -48.664  0.0000E+00  0.0000E+00  0.1200E+02  0.1200E+02
    -48.394  0.0000E+00  0.0000E+00  0.1200E+02  0.1200E+02
    -48.123  0.0000E+00  0.0000E+00  0.1200E+02  0.1200E+02
    -47.852  0.0000E+00  0.0000E+00  0.1200E+02  0.1200E+02
    -47.581  0.0000E+00  0.0000E+00  0.1200E+02  0.1200E+02
    -47.310  0.0000E+00  0.0000E+00  0.1200E+02  0.1200E+02
    -47.040  0.0000E+00  0.0000E+00  0.1200E+02  0.1200E+02
    -46.769  0.0000E+00  0.0000E+00  0.1200E+02  0.1200E+02
    -46.498  0.0000E+00  0.0000E+00  0.1200E+02  0.1200E+02
    -46.227  0.0000E+00  0.0000E+00  0.1200E+02  0.1200E+02
    -45.956  0.0000E+00  0.0000E+00  0.1200E+02  0.1200E+02
    -45.685  0.0000E+00  0.0000E+00  0.1200E+02  0.1200E+02
    -45.415  0.0000E+00  0.0000E+00  0.1200E+02  0.1200E+02
    -45.144  0.0000E+00  0.0000E+00  0.1200E+02  0.1200E+02
    -44.873  0.0000E+00  0.0000E+00  0.1200E+02  0.1200E+02
    -44.602  0.0000E+00  0.0000E+00  0.1200E+02  0.1200E+02
    -44.331  0.0000E+00  0.0000E+00  0.1200E+02  0.1200E+02
    -44.061  0.0000E+00  0.0000E+00  0.1200E+02  0.1200E+02
    -43.790  0.0000E+00  0.0000E+00  0.1200E+02  0.1200E+02
    -43.519  0.0000E+00  0.0000E+00  0.1200E+02  0.1200E+02
    -43.248  0.0000E+00  0.0000E+00  0.1200E+02  0.1200E+02
    -42.977  0.0000E+00  0.0000E+00  0.1200E+02  0.1200E+02
    -42.707  0.0000E+00  0.0000E+00  0.1200E+02  0.1200E+02
    -42.436  0.0000E+00  0.0000E+00  0.1200E+02  0.1200E+02
    -42.165  0.0000E+00  0.0000E+00  0.1200E+02  0.1200E+02
    -41.894  0.0000E+00  0.0000E+00  0.1200E+02  0.1200E+02
    -41.623  0.0000E+00  0.0000E+00  0.1200E+02  0.1200E+02
    -41.353  0.0000E+00  0.0000E+00  0.1200E+02  0.1200E+02
    -41.082  0.0000E+00  0.0000E+00  0.1200E+02  0.1200E+02
    -40.811  0.0000E+00  0.0000E+00  0.1200E+02  0.1200E+02
    -40.540  0.0000E+00  0.0000E+00  0.1200E+02  0.1200E+02
    -40.269  0.0000E+00  0.0000E+00  0.1200E+02  0.1200E+02
    -39.999  0.0000E+00  0.0000E+00  0.1200E+02  0.1200E+02
    -39.728  0.0000E+00  0.0000E+00  0.1200E+02  0.1200E+02
    -39.457  0.0000E+00  0.0000E+00  0.1200E+02  0.1200E+02
    -39.186  0.0000E+00  0.0000E+00  0.1200E+02  0.1200E+02
    -38.915  0.0000E+00  0.0000E+00  0.1200E+02  0.1200E+02
    -38.645  0.0000E+00  0.0000E+00  0.1200E+02  0.1200E+02
    -38.374  0.0000E+00  0.0000E+00  0.1200E+02  0.1200E+02
    -38.103  0.0000E+00  0.0000E+00  0.1200E+02  0.1200E+02
    -37.832  0.0000E+00  0.0000E+00  0.1200E+02  0.1200E+02
    -37.561  0.0000E+00  0.0000E+00  0.1200E+02  0.1200E+02
    -37.290  0.0000E+00  0.0000E+00  0.1200E+02  0.1200E+02
    -37.020  0.0000E+00  0.0000E+00  0.1200E+02  0.1200E+02
    -36.749  0.0000E+00  0.0000E+00  0.1200E+02  0.1200E+02
    -36.478  0.0000E+00  0.0000E+00  0.1200E+02  0.1200E+02
    -36.207  0.0000E+00  0.0000E+00  0.1200E+02  0.1200E+02
    -35.936  0.0000E+00  0.0000E+00  0.1200E+02  0.1200E+02
    -35.666  0.0000E+00  0.0000E+00  0.1200E+02  0.1200E+02
    -35.395  0.0000E+00  0.0000E+00  0.1200E+02  0.1200E+02
    -35.124  0.0000E+00  0.0000E+00  0.1200E+02  0.1200E+02
    -34.853  0.0000E+00  0.0000E+00  0.1200E+02  0.1200E+02
    -34.582  0.0000E+00  0.0000E+00  0.1200E+02  0.1200E+02
    -34.312  0.0000E+00  0.0000E+00  0.1200E+02  0.1200E+02
    -34.041  0.0000E+00  0.0000E+00  0.1200E+02  0.1200E+02
    -33.770  0.0000E+00  0.0000E+00  0.1200E+02  0.1200E+02
    -33.499  0.0000E+00  0.0000E+00  0.1200E+02  0.1200E+02
    -33.228  0.0000E+00  0.0000E+00  0.1200E+02  0.1200E+02
    -32.958  0.0000E+00  0.0000E+00  0.1200E+02  0.1200E+02
    -32.687  0.0000E+00  0.0000E+00  0.1200E+02  0.1200E+02
    -32.416  0.0000E+00  0.0000E+00  0.1200E+02  0.1200E+02
    -32.145  0.0000E+00  0.0000E+00  0.1200E+02  0.1200E+02
    -31.874  0.0000E+00  0.0000E+00  0.1200E+02  0.1200E+02
    -31.604  0.0000E+00  0.0000E+00  0.1200E+02  0.1200E+02
    -31.333  0.0000E+00  0.0000E+00  0.1200E+02  0.1200E+02
    -31.062  0.0000E+00  0.0000E+00  0.1200E+02  0.1200E+02
    -30.791  0.0000E+00  0.0000E+00  0.1200E+02  0.1200E+02
    -30.520  0.0000E+00  0.0000E+00  0.1200E+02  0.1200E+02
    -30.249  0.0000E+00  0.0000E+00  0.1200E+02  0.1200E+02
    -29.979  0.0000E+00  0.0000E+00  0.1200E+02  0.1200E+02
    -29.708  0.0000E+00  0.0000E+00  0.1200E+02  0.1200E+02
    -29.437  0.0000E+00  0.0000E+00  0.1200E+02  0.1200E+02
    -29.166  0.0000E+00  0.0000E+00  0.1200E+02  0.1200E+02
    -28.895  0.0000E+00  0.0000E+00  0.1200E+02  0.1200E+02
    -28.625  0.0000E+00  0.0000E+00  0.1200E+02  0.1200E+02
    -28.354  0.0000E+00  0.0000E+00  0.1200E+02  0.1200E+02
    -28.083  0.0000E+00  0.0000E+00  0.1200E+02  0.1200E+02
    -27.812  0.0000E+00  0.0000E+00  0.1200E+02  0.1200E+02
    -27.541  0.0000E+00  0.0000E+00  0.1200E+02  0.1200E+02
    -27.271  0.0000E+00  0.0000E+00  0.1200E+02  0.1200E+02
    -27.000  0.0000E+00  0.0000E+00  0.1200E+02  0.1200E+02
    -26.729  0.0000E+00  0.0000E+00  0.1200E+02  0.1200E+02
    -26.458  0.0000E+00  0.0000E+00  0.1200E+02  0.1200E+02
    -26.187  0.0000E+00  0.0000E+00  0.1200E+02  0.1200E+02
    -25.917  0.0000E+00  0.0000E+00  0.1200E+02  0.1200E+02
    -25.646  0.0000E+00  0.0000E+00  0.1200E+02  0.1200E+02
    -25.375  0.0000E+00  0.0000E+00  0.1200E+02  0.1200E+02
    -25.104  0.0000E+00  0.0000E+00  0.1200E+02  0.1200E+02
    -24.833  0.0000E+00  0.0000E+00  0.1200E+02  0.1200E+02
    -24.563  0.0000E+00  0.0000E+00  0.1200E+02  0.1200E+02
    -24.292  0.0000E+00  0.0000E+00  0.1200E+02  0.1200E+02
    -24.021  0.0000E+00  0.0000E+00  0.1200E+02  0.1200E+02
    -23.750  0.0000E+00  0.0000E+00  0.1200E+02  0.1200E+02
    -23.479  0.0000E+00  0.0000E+00  0.1200E+02  0.1200E+02
    -23.209  0.0000E+00  0.0000E+00  0.1200E+02  0.1200E+02
    -22.938  0.0000E+00  0.0000E+00  0.1200E+02  0.1200E+02
    -22.667  0.0000E+00  0.0000E+00  0.1200E+02  0.1200E+02
    -22.396  0.0000E+00  0.0000E+00  0.1200E+02  0.1200E+02
    -22.125  0.0000E+00  0.0000E+00  0.1200E+02  0.1200E+02
    -21.854  0.0000E+00  0.0000E+00  0.1200E+02  0.1200E+02
    -21.584  0.0000E+00  0.0000E+00  0.1200E+02  0.1200E+02
    -21.313  0.0000E+00  0.0000E+00  0.1200E+02  0.1200E+02
    -21.042  0.0000E+00  0.0000E+00  0.1200E+02  0.1200E+02
    -20.771  0.0000E+00  0.0000E+00  0.1200E+02  0.1200E+02
    -20.500  0.0000E+00  0.0000E+00  0.1200E+02  0.1200E+02
    -20.230  0.0000E+00  0.0000E+00  0.1200E+02  0.1200E+02
    -19.959  0.0000E+00  0.0000E+00  0.1200E+02  0.1200E+02
    -19.688  0.0000E+00  0.0000E+00  0.1200E+02  0.1200E+02
    -19.417  0.0000E+00  0.0000E+00  0.1200E+02  0.1200E+02
    -19.146  0.0000E+00  0.0000E+00  0.1200E+02  0.1200E+02
    -18.876  0.0000E+00  0.0000E+00  0.1200E+02  0.1200E+02
    -18.605  0.0000E+00  0.0000E+00  0.1200E+02  0.1200E+02
    -18.334  0.0000E+00  0.0000E+00  0.1200E+02  0.1200E+02
    -18.063  0.0000E+00  0.0000E+00  0.1200E+02  0.1200E+02
    -17.792  0.0000E+00  0.0000E+00  0.1200E+02  0.1200E+02
    -17.522  0.0000E+00  0.0000E+00  0.1200E+02  0.1200E+02
    -17.251  0.0000E+00  0.0000E+00  0.1200E+02  0.1200E+02
    -16.980  0.0000E+00  0.0000E+00  0.1200E+02  0.1200E+02
    -16.709  0.0000E+00  0.0000E+00  0.1200E+02  0.1200E+02
    -16.438  0.0000E+00  0.0000E+00  0.1200E+02  0.1200E+02
    -16.168  0.0000E+00  0.0000E+00  0.1200E+02  0.1200E+02
    -15.897  0.0000E+00  0.0000E+00  0.1200E+02  0.1200E+02
    -15.626  0.0000E+00  0.0000E+00  0.1200E+02  0.1200E+02
    -15.355  0.0000E+00  0.0000E+00  0.1200E+02  0.1200E+02
    -15.084  0.0000E+00  0.0000E+00  0.1200E+02  0.1200E+02
    -14.814  0.0000E+00  0.0000E+00  0.1200E+02  0.1200E+02
    -14.543  0.0000E+00  0.0000E+00  0.1200E+02  0.1200E+02
    -14.272  0.0000E+00  0.0000E+00  0.1200E+02  0.1200E+02
    -14.001  0.0000E+00  0.0000E+00  0.1200E+02  0.1200E+02
    -13.730  0.0000E+00  0.0000E+00  0.1200E+02  0.1200E+02
    -13.459  0.0000E+00  0.0000E+00  0.1200E+02  0.1200E+02
    -13.189  0.0000E+00  0.0000E+00  0.1200E+02  0.1200E+02
    -12.918  0.0000E+00  0.0000E+00  0.1200E+02  0.1200E+02
    -12.647  0.0000E+00  0.0000E+00  0.1200E+02  0.1200E+02
    -12.376  0.0000E+00  0.0000E+00  0.1200E+02  0.1200E+02
    -12.105  0.0000E+00  0.0000E+00  0.1200E+02  0.1200E+02
    -11.835  0.0000E+00  0.0000E+00  0.1200E+02  0.1200E+02
    -11.564  0.0000E+00  0.0000E+00  0.1200E+02  0.1200E+02
    -11.293  0.0000E+00  0.0000E+00  0.1200E+02  0.1200E+02
    -11.022  0.0000E+00  0.0000E+00  0.1200E+02  0.1200E+02
    -10.751  0.0000E+00  0.0000E+00  0.1200E+02  0.1200E+02
    -10.481  0.0000E+00  0.0000E+00  0.1200E+02  0.1200E+02
    -10.210  0.0000E+00  0.0000E+00  0.1200E+02  0.1200E+02
     -9.939  0.0000E+00  0.0000E+00  0.1200E+02  0.1200E+02
     -9.668  0.0000E+00  0.0000E+00  0.1200E+02  0.1200E+02
     -9.397  0.0000E+00  0.0000E+00  0.1200E+02  0.1200E+02
     -9.127  0.0000E+00  0.0000E+00  0.1200E+02  0.1200E+02
     -8.856  0.0000E+00  0.0000E+00  0.1200E+02  0.1200E+02
     -8.585  0.0000E+00  0.0000E+00  0.1200E+02  0.1200E+02
     -8.314  0.0000E+00  0.0000E+00  0.1200E+02  0.1200E+02
     -8.043  0.0000E+00  0.0000E+00  0.1200E+02  0.1200E+02
     -7.773  0.0000E+00  0.0000E+00  0.1200E+02  0.1200E+02
     -7.502  0.0000E+00  0.0000E+00  0.1200E+02  0.1200E+02
     -7.231  0.0000E+00  0.0000E+00  0.1200E+02  0.1200E+02
     -6.960  0.0000E+00  0.0000E+00  0.1200E+02  0.1200E+02
     -6.689  0.0000E+00  0.0000E+00  0.1200E+02  0.1200E+02
     -6.419  0.0000E+00  0.0000E+00  0.1200E+02  0.1200E+02
     -6.148  0.0000E+00  0.0000E+00  0.1200E+02  0.1200E+02
     -5.877  0.0000E+00  0.0000E+00  0.1200E+02  0.1200E+02
     -5.606  0.0000E+00  0.0000E+00  0.1200E+02  0.1200E+02
     -5.335  0.0000E+00  0.0000E+00  0.1200E+02  0.1200E+02
     -5.064  0.0000E+00  0.0000E+00  0.1200E+02  0.1200E+02
     -4.794  0.0000E+00  0.0000E+00  0.1200E+02  0.1200E+02
     -4.523  0.0000E+00  0.0000E+00  0.1200E+02  0.1200E+02
     -4.252  0.0000E+00  0.0000E+00  0.1200E+02  0.1200E+02
     -3.981  0.0000E+00  0.0000E+00  0.1200E+02  0.1200E+02
     -3.710  0.0000E+00  0.0000E+00  0.1200E+02  0.1200E+02
     -3.440  0.0000E+00  0.0000E+00  0.1200E+02  0.1200E+02
     -3.169  0.0000E+00  0.0000E+00  0.1200E+02  0.1200E+02
     -2.898  0.0000E+00  0.0000E+00  0.1200E+02  0.1200E+02
     -2.627  0.0000E+00  0.0000E+00  0.1200E+02  0.1200E+02
     -2.356  0.0000E+00  0.0000E+00  0.1200E+02  0.1200E+02
     -2.086  0.0000E+00  0.0000E+00  0.1200E+02  0.1200E+02
     -1.815  0.7155E-02  0.7155E-02  0.1200E+02  0.1200E+02
     -1.544  0.1054E+00  0.1054E+00  0.1201E+02  0.1201E+02
     -1.273  0.2372E+00  0.2372E+00  0.1206E+02  0.1206E+02
     -1.002  0.2816E+00  0.2816E+00  0.1213E+02  0.1213E+02
     -0.732  0.3178E+00  0.3178E+00  0.1222E+02  0.1222E+02
     -0.461  0.3735E+00  0.3735E+00  0.1231E+02  0.1231E+02
     -0.190  0.4852E+00  0.4852E+00  0.1242E+02  0.1242E+02
      0.081  0.5694E+00  0.5694E+00  0.1257E+02  0.1257E+02
      0.352  0.5863E+00  0.5863E+00  0.1272E+02  0.1272E+02
      0.622  0.5365E+00  0.5365E+00  0.1288E+02  0.1288E+02
      0.893  0.7600E+00  0.7600E+00  0.1305E+02  0.1305E+02
      1.164  0.6640E+00  0.6640E+00  0.1325E+02  0.1325E+02
      1.435  0.6904E+00  0.6904E+00  0.1344E+02  0.1344E+02
      1.706  0.8005E+00  0.8005E+00  0.1363E+02  0.1363E+02
      1.976  0.1046E+01  0.1046E+01  0.1388E+02  0.1388E+02
      2.247  0.7501E+00  0.7501E+00  0.1414E+02  0.1414E+02
      2.518  0.6925E+00  0.6925E+00  0.1433E+02  0.1433E+02
      2.789  0.8160E+00  0.8160E+00  0.1454E+02  0.1454E+02
      3.060  0.7844E+00  0.7844E+00  0.1476E+02  0.1476E+02
      3.331  0.1135E+01  0.1135E+01  0.1500E+02  0.1500E+02
      3.601  0.1078E+01  0.1078E+01  0.1537E+02  0.1537E+02
      3.872  0.1689E+01  0.1689E+01  0.1569E+02  0.1569E+02
      4.143  0.1057E+01  0.1057E+01  0.1614E+02  0.1614E+02
      4.414  0.1232E+01  0.1232E+01  0.1638E+02  0.1638E+02
      4.685  0.1306E+01  0.1306E+01  0.1680E+02  0.1680E+02
      4.955  0.2388E+01  0.2388E+01  0.1729E+02  0.1729E+02
      5.226  0.3309E+01  0.3309E+01  0.1780E+02  0.1780E+02
      5.497  0.2737E+01  0.2737E+01  0.1864E+02  0.1864E+02
      5.768  0.3007E+01  0.3007E+01  0.1947E+02  0.1947E+02
      6.039  0.3370E+01  0.3370E+01  0.2045E+02  0.2045E+02
      6.309  0.7006E+01  0.7006E+01  0.2181E+02  0.2181E+02
      6.580  0.6874E+01  0.6874E+01  0.2401E+02  0.2401E+02
      6.851  0.6290E+01  0.6290E+01  0.2565E+02  0.2565E+02
      7.122  0.8890E+01  0.8890E+01  0.2758E+02  0.2758E+02
      7.393  0.8442E+01  0.8442E+01  0.2979E+02  0.2979E+02
      7.663  0.1388E+02  0.1388E+02  0.3268E+02  0.3268E+02
      7.934  0.2280E+01  0.2280E+01  0.3440E+02  0.3440E+02
      8.205  0.4701E+01  0.4701E+01  0.3511E+02  0.3511E+02
      8.476  0.2273E+01  0.2273E+01  0.3635E+02  0.3635E+02
      8.747  0.1773E+01  0.1773E+01  0.3701E+02  0.3701E+02
      9.017  0.1433E+01  0.1433E+01  0.3737E+02  0.3737E+02
      9.288  0.2144E+01  0.2144E+01  0.3795E+02  0.3795E+02
      9.559  0.1434E+01  0.1434E+01  0.3843E+02  0.3843E+02
      9.830  0.1065E+01  0.1065E+01  0.3877E+02  0.3877E+02
     10.101  0.8570E+00  0.8570E+00  0.3902E+02  0.3902E+02
     10.371  0.9477E+00  0.9477E+00  0.3927E+02  0.3927E+02
     10.642  0.7847E+00  0.7847E+00  0.3952E+02  0.3952E+02
     10.913  0.9190E+00  0.9190E+00  0.3974E+02  0.3974E+02
     11.184  0.1029E+01  0.1029E+01  0.4001E+02  0.4001E+02
     11.455  0.1241E+01  0.1241E+01  0.4033E+02  0.4033E+02
     11.726  0.1697E+01  0.1697E+01  0.4074E+02  0.4074E+02
     11.996  0.1740E+01  0.1740E+01  0.4123E+02  0.4123E+02
     12.267  0.1776E+01  0.1776E+01  0.4169E+02  0.4169E+02
     12.538  0.1551E+01  0.1551E+01  0.4215E+02  0.4215E+02
     12.809  0.1401E+01  0.1401E+01  0.4254E+02  0.4254E+02
     13.080  0.1363E+01  0.1363E+01  0.4291E+02  0.4291E+02
     13.350  0.1447E+01  0.1447E+01  0.4329E+02  0.4329E+02
     13.621  0.1598E+01  0.1598E+01  0.4372E+02  0.4372E+02
     13.892  0.1741E+01  0.1741E+01  0.4417E+02  0.4417E+02
     14.163  0.1759E+01  0.1759E+01  0.4465E+02  0.4465E+02
     14.434  0.1855E+01  0.1855E+01  0.4512E+02  0.4512E+02
     14.704  0.1576E+01  0.1576E+01  0.4559E+02  0.4559E+02
     14.975  0.1387E+01  0.1387E+01  0.4599E+02  0.4599E+02
     15.246  0.1492E+01  0.1492E+01  0.4639E+02  0.4639E+02
     15.517  0.1355E+01  0.1355E+01  0.4676E+02  0.4676E+02
     15.788  0.1650E+01  0.1650E+01  0.4717E+02  0.4717E+02
     16.058  0.1809E+01  0.1809E+01  0.4766E+02  0.4766E+02
     16.329  0.1626E+01  0.1626E+01  0.4813E+02  0.4813E+02
     16.600  0.1761E+01  0.1761E+01  0.4859E+02  0.4859E+02
     16.871  0.1731E+01  0.1731E+01  0.4907E+02  0.4907E+02
     17.142  0.1538E+01  0.1538E+01  0.4951E+02  0.4951E+02
     17.412  0.1396E+01  0.1396E+01  0.4990E+02  0.4990E+02
     17.683  0.1404E+01  0.1404E+01  0.5027E+02  0.5027E+02
     17.954  0.1569E+01  0.1569E+01  0.5067E+02  0.5067E+02
     18.225  0.1118E+01  0.1118E+01  0.5102E+02  0.5102E+02
     18.496  0.1155E+01  0.1155E+01  0.5132E+02  0.5132E+02
     18.767  0.8365E+00  0.8365E+00  0.5161E+02  0.5161E+02
     19.037  0.9863E+00  0.9863E+00  0.5186E+02  0.5186E+02
     19.308  0.6593E-01  0.6593E-01  0.5200E+02  0.5200E+02
     19.579  0.0000E+00  0.0000E+00  0.5200E+02  0.5200E+02
     19.850  0.0000E+00  0.0000E+00  0.5200E+02  0.5200E+02
     20.121  0.0000E+00  0.0000E+00  0.5200E+02  0.5200E+02
     20.391  0.0000E+00  0.0000E+00  0.5200E+02  0.5200E+02
     20.662  0.0000E+00  0.0000E+00  0.5200E+02  0.5200E+02
     20.933  0.0000E+00  0.0000E+00  0.5200E+02  0.5200E+02
     21.204  0.0000E+00  0.0000E+00  0.5200E+02  0.5200E+02
     21.475  0.0000E+00  0.0000E+00  0.5200E+02  0.5200E+02
     21.745  0.0000E+00  0.0000E+00  0.5200E+02  0.5200E+02
     22.016  0.0000E+00  0.0000E+00  0.5200E+02  0.5200E+02
     22.287  0.0000E+00  0.0000E+00  0.5200E+02  0.5200E+02
     22.558  0.0000E+00  0.0000E+00  0.5200E+02  0.5200E+02
     22.829  0.0000E+00  0.0000E+00  0.5200E+02  0.5200E+02
     23.099  0.0000E+00  0.0000E+00  0.5200E+02  0.5200E+02
