 running on   24 total cores
 distrk:  each k-point on   24 cores,    1 groups
 distr:  one band on    6 cores,    4 groups
 using from now: INCAR     
 vasp.5.4.4.18Apr17-6-g9f103f2a35 (build Jan 03 2018 06:08:52) complex          
  
 POSCAR found :  2 types and       8 ions
 scaLAPACK will be used
 WARNING: for PREC=h ENMAX is automatically increase by 25 %
        this was not the case for versions prior to vasp.4.4
 WARNING: for PREC=h ENMAX is automatically increase by 25 %
        this was not the case for versions prior to vasp.4.4
 LDA part: xc-table for Pade appr. of Perdew
 POSCAR, INCAR and KPOINTS ok, starting setup
 FFT: planning ...
 WAVECAR not read
 entering main loop
       N       E                     dE             d eps       ncg     rms          rms(c)
DAV:   1     0.871514973192E+03    0.87151E+03   -0.43933E+04  6888   0.164E+03
DAV:   2     0.138293696687E+02   -0.85769E+03   -0.81844E+03  5676   0.523E+02
DAV:   3    -0.449245442957E+02   -0.58754E+02   -0.55028E+02  6660   0.154E+02
DAV:   4    -0.468695061506E+02   -0.19450E+01   -0.19311E+01  6368   0.260E+01
DAV:   5    -0.469193282582E+02   -0.49822E-01   -0.49808E-01  6632   0.428E+00    0.286E+01
DAV:   6    -0.589207605355E+02   -0.12001E+02   -0.12125E+02  6420   0.127E+02    0.357E+01
DAV:   7    -0.412557409803E+02    0.17665E+02   -0.47068E+01  6324   0.822E+01    0.410E+00
DAV:   8    -0.415247405827E+02   -0.26900E+00   -0.29539E+00  7292   0.151E+01    0.389E+00
DAV:   9    -0.414946705833E+02    0.30070E-01   -0.59128E-01  6856   0.127E+01    0.312E+00
DAV:  10    -0.414290326910E+02    0.65638E-01   -0.36885E-01  6792   0.792E+00    0.812E-01
DAV:  11    -0.414224260968E+02    0.66066E-02   -0.34228E-02  6360   0.159E+00    0.428E-01
DAV:  12    -0.414209564639E+02    0.14696E-02   -0.74021E-03  7400   0.837E-01    0.114E-01
DAV:  13    -0.414210120970E+02   -0.55633E-04   -0.50767E-04  6128   0.169E-01    0.740E-02
DAV:  14    -0.414209634161E+02    0.48681E-04   -0.14484E-04  7644   0.119E-01    0.130E-02
DAV:  15    -0.414209637289E+02   -0.31281E-06   -0.96088E-06  6636   0.231E-02    0.640E-03
DAV:  16    -0.414209629160E+02    0.81293E-06   -0.12579E-06  6904   0.110E-02    0.173E-03
DAV:  17    -0.414209627476E+02    0.16832E-06   -0.12668E-07  6068   0.407E-03    0.994E-04
DAV:  18    -0.414209625679E+02    0.17972E-06   -0.27572E-08  4440   0.173E-03    0.235E-04
DAV:  19    -0.414209625406E+02    0.27347E-07   -0.32243E-09  3256   0.493E-04    0.841E-05
DAV:  20    -0.414209625318E+02    0.87257E-08   -0.67691E-10  3224   0.245E-04
   1 F= -.41420963E+02 E0= -.41420863E+02  d E =-.414210E+02  mag=    -0.0000
 curvature:   0.00 expect dE= 0.000E+00 dE for cont linesearch  0.000E+00
 trial: gam= 0.00000 g(F)=  0.181E-01 g(S)=  0.369E+01 ort = 0.000E+00 (trialstep = 0.100E+01)
 search vector abs. value=  0.370E+01
 bond charge predicted
       N       E                     dE             d eps       ncg     rms          rms(c)
DAV:   1    -0.183162429961E+03   -0.14174E+03   -0.17442E+03  5696   0.500E+02    0.923E+01
DAV:   2    -0.972923888426E+02    0.85870E+02   -0.94048E+02  6564   0.245E+02    0.656E+01
DAV:   3    -0.646800472112E+02    0.32612E+02   -0.33319E+02  6352   0.179E+02    0.434E+01
DAV:   4    -0.432363664799E+02    0.21444E+02   -0.90963E+01  6332   0.994E+01    0.721E+00
DAV:   5    -0.425869556407E+02    0.64941E+00   -0.72132E+00  6248   0.293E+01    0.775E+00
DAV:   6    -0.425032247681E+02    0.83731E-01   -0.17301E+00  6432   0.171E+01    0.741E+00
DAV:   7    -0.419346856714E+02    0.56854E+00   -0.77220E-01  7120   0.895E+00    0.749E-01
DAV:   8    -0.419420387696E+02   -0.73531E-02   -0.11438E-01  6732   0.253E+00    0.922E-01
DAV:   9    -0.419336008427E+02    0.84379E-02   -0.16836E-02  7328   0.120E+00    0.186E-01
DAV:  10    -0.419336932815E+02   -0.92439E-04   -0.31376E-03  7424   0.522E-01    0.133E-01
DAV:  11    -0.419334568788E+02    0.23640E-03   -0.52484E-04  7400   0.236E-01    0.261E-02
DAV:  12    -0.419334593679E+02   -0.24891E-05   -0.48955E-05  7204   0.786E-02    0.951E-03
DAV:  13    -0.419334592944E+02    0.73538E-07   -0.66334E-06  6864   0.342E-02    0.559E-03
DAV:  14    -0.419334590940E+02    0.20038E-06   -0.87144E-07  6832   0.114E-02    0.738E-04
DAV:  15    -0.419334590436E+02    0.50393E-07   -0.70685E-08  5564   0.176E-03    0.266E-04
DAV:  16    -0.419334590518E+02   -0.82164E-08   -0.23050E-09  3176   0.459E-04
   2 F= -.41933459E+02 E0= -.41932435E+02  d E =-.512497E+00  mag=     0.0000
 trial-energy change:   -0.512497  1 .order   -0.688421   -3.703977    2.327134
 step:   0.5713(harm=  0.6141)  dis= 0.00897  next Energy=   -42.446166 (dE=-0.103E+01)
 bond charge predicted
       N       E                     dE             d eps       ncg     rms          rms(c)
DAV:   1    -0.817973825169E+02   -0.39864E+02   -0.33475E+02  6120   0.183E+02    0.661E+01
DAV:   2    -0.127626961722E+03   -0.45830E+02   -0.64469E+02  6024   0.287E+02    0.624E+01
DAV:   3    -0.462813060658E+02    0.81346E+02   -0.21919E+02  6432   0.136E+02    0.147E+01
DAV:   4    -0.443175693308E+02    0.19637E+01   -0.41132E+00  6408   0.157E+01    0.963E+00
DAV:   5    -0.424631929991E+02    0.18544E+01   -0.22537E+00  7184   0.114E+01    0.203E+00
DAV:   6    -0.424224982766E+02    0.40695E-01   -0.50464E-01  7480   0.600E+00    0.140E+00
DAV:   7    -0.424189056400E+02    0.35926E-02   -0.64940E-02  6440   0.348E+00    0.928E-01
DAV:   8    -0.424094378197E+02    0.94678E-02   -0.16288E-02  7344   0.121E+00    0.172E-01
DAV:   9    -0.424092670618E+02    0.17076E-03   -0.16159E-03  7400   0.302E-01    0.382E-02
DAV:  10    -0.424092690391E+02   -0.19773E-05   -0.87223E-05  5928   0.837E-02    0.249E-02
DAV:  11    -0.424092613599E+02    0.76792E-05   -0.58115E-06  7968   0.280E-02    0.106E-02
DAV:  12    -0.424092595089E+02    0.18510E-05   -0.37642E-06  7600   0.174E-02    0.155E-03
DAV:  13    -0.424092595036E+02    0.52369E-08   -0.29430E-07  6216   0.509E-03    0.280E-04
DAV:  14    -0.424092594740E+02    0.29670E-07   -0.31890E-08  4712   0.193E-03    0.941E-04
DAV:  15    -0.424092595123E+02   -0.38357E-07   -0.16810E-08  3412   0.145E-03    0.937E-05
DAV:  16    -0.424092595180E+02   -0.57207E-08   -0.36428E-09  3092   0.281E-04
   3 F= -.42409260E+02 E0= -.42409128E+02  d E =-.988297E+00  mag=    -0.0000
 curvature:  -0.30 expect dE=-0.624E-01 dE for cont linesearch -0.476E-05
 trial: gam= 0.05759 g(F)=  0.767E-02 g(S)=  0.198E+00 ort =-0.763E-02 (trialstep = 0.914E+00)
 search vector abs. value=  0.217E+00
 bond charge predicted
       N       E                     dE             d eps       ncg     rms          rms(c)
DAV:   1    -0.436372340923E+02   -0.12280E+01   -0.31139E+01  7136   0.667E+01    0.105E+01
DAV:   2    -0.441977265242E+02   -0.56049E+00   -0.11724E+01  6360   0.375E+01    0.115E+01
DAV:   3    -0.427704064164E+02    0.14273E+01   -0.51843E+00  6368   0.273E+01    0.440E+00
DAV:   4    -0.430689790690E+02   -0.29857E+00   -0.23593E+00  6992   0.250E+01    0.852E+00
DAV:   5    -0.425481734782E+02    0.52081E+00   -0.14678E+00  7000   0.162E+01    0.582E-01
DAV:   6    -0.425536260979E+02   -0.54526E-02   -0.11342E-01  5960   0.220E+00    0.254E-01
DAV:   7    -0.425533606762E+02    0.26542E-03   -0.31497E-03  7736   0.519E-01    0.110E-01
DAV:   8    -0.425534097491E+02   -0.49073E-04   -0.53815E-04  7256   0.222E-01    0.328E-02
DAV:   9    -0.425533940049E+02    0.15744E-04   -0.87650E-05  6948   0.116E-01    0.125E-02
DAV:  10    -0.425533936184E+02    0.38648E-06   -0.60006E-06  6252   0.239E-02    0.152E-03
DAV:  11    -0.425533934720E+02    0.14641E-06   -0.34018E-07  7492   0.445E-03    0.484E-04
DAV:  12    -0.425533933840E+02    0.88045E-07   -0.32160E-08  5428   0.167E-03    0.238E-04
DAV:  13    -0.425533933813E+02    0.26193E-08   -0.34290E-09  3112   0.661E-04
   4 F= -.42553393E+02 E0= -.42552626E+02  d E =-.144134E+00  mag=    -0.0000
 trial-energy change:   -0.144134  1 .order   -0.147383   -0.187631   -0.107135
 step:   2.1311(harm=  2.1311)  dis= 0.02288  next Energy=   -42.627937 (dE=-0.219E+00)
 bond charge predicted
       N       E                     dE             d eps       ncg     rms          rms(c)
DAV:   1    -0.447533072096E+02   -0.21999E+01   -0.57646E+01  7144   0.892E+01    0.147E+01
DAV:   2    -0.459064962072E+02   -0.11532E+01   -0.23306E+01  6328   0.527E+01    0.160E+01
DAV:   3    -0.429818474076E+02    0.29246E+01   -0.10156E+01  6328   0.379E+01    0.564E+00
DAV:   4    -0.434303921738E+02   -0.44854E+00   -0.38660E+00  7256   0.301E+01    0.105E+01
DAV:   5    -0.426066304556E+02    0.82376E+00   -0.22868E+00  6928   0.199E+01    0.694E-01
DAV:   6    -0.426172277825E+02   -0.10597E-01   -0.17489E-01  6000   0.279E+00    0.325E-01
DAV:   7    -0.426168714242E+02    0.35636E-03   -0.48547E-03  7304   0.681E-01    0.155E-01
DAV:   8    -0.426170132665E+02   -0.14184E-03   -0.10502E-03  7480   0.324E-01    0.624E-02
DAV:   9    -0.426169536591E+02    0.59607E-04   -0.25058E-04  7276   0.192E-01    0.226E-02
DAV:  10    -0.426169516484E+02    0.20107E-05   -0.15688E-05  6432   0.407E-02    0.518E-03
DAV:  11    -0.426169513780E+02    0.27042E-06   -0.16165E-06  6740   0.160E-02    0.189E-03
DAV:  12    -0.426169512325E+02    0.14544E-06   -0.19933E-07  6872   0.455E-03    0.474E-04
DAV:  13    -0.426169512135E+02    0.19048E-07   -0.18122E-08  3924   0.130E-03    0.317E-04
DAV:  14    -0.426169511986E+02    0.14905E-07   -0.48836E-09  3256   0.809E-04    0.744E-05
DAV:  15    -0.426169511997E+02   -0.10969E-08   -0.15258E-09  3124   0.334E-04
   5 F= -.42616951E+02 E0= -.42616434E+02  d E =-.207692E+00  mag=    -0.0000
 curvature:  -1.13 expect dE=-0.218E-01 dE for cont linesearch -0.232E-02
 ZBRENT: interpolating
 opt :   1.9451  next Energy=   -42.618917 (dE=-0.210E+00)
 bond charge predicted
       N       E                     dE             d eps       ncg     rms          rms(c)
DAV:   1    -0.426761370529E+02   -0.59186E-01   -0.14112E+00  6960   0.144E+01    0.246E+00
DAV:   2    -0.427436086810E+02   -0.67472E-01   -0.74348E-01  6360   0.993E+00    0.343E+00
DAV:   3    -0.426396874566E+02    0.10392E+00   -0.40532E-01  6656   0.958E+00    0.173E+00
DAV:   4    -0.426292203978E+02    0.10467E-01   -0.15183E-01  6452   0.577E+00    0.101E+00
DAV:   5    -0.426188071968E+02    0.10413E-01   -0.24116E-02  7664   0.230E+00    0.218E-01
DAV:   6    -0.426185660879E+02    0.24111E-03   -0.34157E-03  6472   0.536E-01    0.435E-02
DAV:   7    -0.426185695227E+02   -0.34347E-05   -0.15166E-04  5988   0.120E-01    0.243E-02
DAV:   8    -0.426185753511E+02   -0.58285E-05   -0.17150E-05  6816   0.381E-02    0.428E-03
DAV:   9    -0.426185749424E+02    0.40874E-06   -0.18296E-06  7288   0.140E-02    0.258E-03
DAV:  10    -0.426185750474E+02   -0.10504E-06   -0.18030E-07  6376   0.400E-03    0.485E-04
DAV:  11    -0.426185750583E+02   -0.10852E-07   -0.15873E-08  3528   0.136E-03    0.191E-04
DAV:  12    -0.426185750684E+02   -0.10145E-07   -0.25712E-09  3160   0.423E-04    0.925E-05
DAV:  13    -0.426185750736E+02   -0.51896E-08   -0.58478E-10  3068   0.187E-04
   6 F= -.42618575E+02 E0= -.42618055E+02  d E =-.209316E+00  mag=    -0.0000
 curvature:  -0.95 expect dE=-0.135E-01 dE for cont linesearch -0.918E-04
 ZBRENT: interpolating
 opt :   1.9781  next Energy=   -42.618651 (dE=-0.209E+00)
 bond charge predicted
       N       E                     dE             d eps       ncg     rms          rms(c)
DAV:   1    -0.426204461422E+02   -0.18711E-02   -0.44269E-02  7064   0.253E+00    0.429E-01
DAV:   2    -0.426225102894E+02   -0.20641E-02   -0.22260E-02  6380   0.172E+00    0.623E-01
DAV:   3    -0.426193929283E+02    0.31174E-02   -0.12264E-02  6500   0.156E+00    0.312E-01
DAV:   4    -0.426189956835E+02    0.39724E-03   -0.44945E-03  6512   0.111E+00    0.176E-01
DAV:   5    -0.426186658666E+02    0.32982E-03   -0.76640E-04  7768   0.363E-01    0.331E-02
DAV:   6    -0.426186600856E+02    0.57809E-05   -0.80243E-05  6324   0.780E-02    0.903E-03
DAV:   7    -0.426186594766E+02    0.60904E-06   -0.39686E-06  6300   0.193E-02    0.401E-03
DAV:   8    -0.426186592046E+02    0.27203E-06   -0.53870E-07  6504   0.636E-03    0.689E-04
DAV:   9    -0.426186592301E+02   -0.25559E-07   -0.45989E-08  5532   0.191E-03    0.336E-04
DAV:  10    -0.426186592258E+02    0.43347E-08   -0.27950E-09  3168   0.451E-04
   7 F= -.42618659E+02 E0= -.42618151E+02  d E =-.209400E+00  mag=     0.0000
 curvature:  -0.79 expect dE=-0.114E-01 dE for cont linesearch -0.107E-06
 trial: gam= 0.08065 g(F)=  0.106E-01 g(S)=  0.391E-02 ort =-0.172E-03 (trialstep = 0.113E+01)
 search vector abs. value=  0.159E-01
 bond charge predicted
       N       E                     dE             d eps       ncg     rms          rms(c)
DAV:   1    -0.426816910399E+02   -0.63032E-01   -0.11662E+00  6000   0.961E+00    0.212E+00
DAV:   2    -0.427277296940E+02   -0.46039E-01   -0.55648E-01  6408   0.848E+00    0.302E+00
DAV:   3    -0.426479715781E+02    0.79758E-01   -0.30924E-01  6568   0.861E+00    0.154E+00
DAV:   4    -0.426392353939E+02    0.87362E-02   -0.11786E-01  6440   0.508E+00    0.890E-01
DAV:   5    -0.426312749026E+02    0.79605E-02   -0.19064E-02  7784   0.194E+00    0.224E-01
DAV:   6    -0.426309273345E+02    0.34757E-03   -0.26044E-03  6428   0.470E-01    0.415E-02
DAV:   7    -0.426309219738E+02    0.53607E-05   -0.14196E-04  6844   0.998E-02    0.190E-02
DAV:   8    -0.426309232645E+02   -0.12906E-05   -0.20046E-05  6536   0.389E-02    0.779E-03
DAV:   9    -0.426309228472E+02    0.41728E-06   -0.20342E-06  6480   0.149E-02    0.167E-03
DAV:  10    -0.426309229180E+02   -0.70762E-07   -0.14626E-07  6408   0.363E-03    0.437E-04
DAV:  11    -0.426309229337E+02   -0.15782E-07   -0.14493E-08  3548   0.145E-03    0.151E-04
DAV:  12    -0.426309229332E+02    0.55843E-09   -0.23456E-09  3148   0.590E-04
   8 F= -.42630923E+02 E0= -.42630271E+02  d E =-.122637E-01  mag=    -0.0000
 trial-energy change:   -0.012264  1 .order   -0.012375   -0.016326   -0.008423
 step:   2.6212(harm=  2.3282)  dis= 0.04207  next Energy=   -42.636248 (dE=-0.176E-01)
 bond charge predicted
       N       E                     dE             d eps       ncg     rms          rms(c)
DAV:   1    -0.427240666557E+02   -0.93144E-01   -0.20332E+00  6032   0.127E+01    0.279E+00
DAV:   2    -0.428065671462E+02   -0.82500E-01   -0.97796E-01  6408   0.113E+01    0.410E+00
DAV:   3    -0.426698244895E+02    0.13674E+00   -0.57207E-01  6560   0.112E+01    0.218E+00
DAV:   4    -0.426496511802E+02    0.20173E-01   -0.21363E-01  6464   0.664E+00    0.112E+00
DAV:   5    -0.426368088098E+02    0.12842E-01   -0.31138E-02  7608   0.233E+00    0.292E-01
DAV:   6    -0.426362069848E+02    0.60183E-03   -0.42111E-03  6488   0.599E-01    0.554E-02
DAV:   7    -0.426361967894E+02    0.10195E-04   -0.24749E-04  6872   0.129E-01    0.233E-02
DAV:   8    -0.426361989908E+02   -0.22014E-05   -0.31543E-05  6272   0.489E-02    0.951E-03
DAV:   9    -0.426361984653E+02    0.52548E-06   -0.27653E-06  6476   0.168E-02    0.156E-03
DAV:  10    -0.426361985111E+02   -0.45799E-07   -0.21369E-07  6228   0.384E-03    0.563E-04
DAV:  11    -0.426361985378E+02   -0.26652E-07   -0.19951E-08  3732   0.161E-03    0.148E-04
DAV:  12    -0.426361985362E+02    0.15516E-08   -0.34966E-09  3164   0.705E-04
   9 F= -.42636199E+02 E0= -.42635077E+02  d E =-.175393E-01  mag=     0.0000
 curvature:  -1.20 expect dE=-0.108E-01 dE for cont linesearch -0.279E-05
 trial: gam= 0.67539 g(F)=  0.172E-02 g(S)=  0.726E-02 ort =-0.192E-03 (trialstep = 0.142E+01)
 search vector abs. value=  0.160E-01
 bond charge predicted
       N       E                     dE             d eps       ncg     rms          rms(c)
DAV:   1    -0.430334765246E+02   -0.39728E+00   -0.61953E+00  6872   0.275E+01    0.641E+00
DAV:   2    -0.435927696436E+02   -0.55929E+00   -0.57906E+00  6344   0.270E+01    0.897E+00
DAV:   3    -0.426853566624E+02    0.90741E+00   -0.26219E+00  6360   0.205E+01    0.247E+00
DAV:   4    -0.426987156593E+02   -0.13359E-01   -0.46151E-01  6888   0.118E+01    0.262E+00
DAV:   5    -0.426442221197E+02    0.54494E-01   -0.14492E-01  7576   0.534E+00    0.457E-01
DAV:   6    -0.426432221165E+02    0.10000E-02   -0.15029E-02  6288   0.960E-01    0.123E-01
DAV:   7    -0.426431736795E+02    0.48437E-04   -0.64542E-04  7120   0.206E-01    0.574E-02
DAV:   8    -0.426431859892E+02   -0.12310E-04   -0.87106E-05  6328   0.829E-02    0.106E-02
DAV:   9    -0.426431846216E+02    0.13676E-05   -0.63156E-06  6856   0.277E-02    0.432E-03
DAV:  10    -0.426431842583E+02    0.36326E-06   -0.17493E-06  6224   0.120E-02    0.115E-03
DAV:  11    -0.426431842315E+02    0.26743E-07   -0.95672E-08  6512   0.322E-03    0.366E-04
DAV:  12    -0.426431842116E+02    0.19903E-07   -0.67549E-09  3224   0.103E-03    0.109E-04
DAV:  13    -0.426431842061E+02    0.55097E-08   -0.20351E-09  3120   0.404E-04
  10 F= -.42643184E+02 E0= -.42642462E+02  d E =-.698567E-02  mag=    -0.0000
 trial-energy change:   -0.006986  1 .order   -0.007203   -0.012554   -0.001852
 step:   1.7062(harm=  1.6641)  dis= 0.00860  next Energy=   -42.643370 (dE=-0.717E-02)
 bond charge predicted
       N       E                     dE             d eps       ncg     rms          rms(c)
DAV:   1    -0.426600573995E+02   -0.16873E-01   -0.25835E-01  6856   0.562E+00    0.134E+00
DAV:   2    -0.426889938044E+02   -0.28936E-01   -0.25739E-01  6376   0.573E+00    0.208E+00
DAV:   3    -0.426483894559E+02    0.40604E-01   -0.13350E-01  6400   0.495E+00    0.894E-01
DAV:   4    -0.426446798263E+02    0.37096E-02   -0.32353E-02  6440   0.296E+00    0.358E-01
DAV:   5    -0.426434581944E+02    0.12216E-02   -0.36417E-03  7400   0.680E-01    0.110E-01
DAV:   6    -0.426433599351E+02    0.98259E-04   -0.45117E-04  6432   0.197E-01    0.191E-02
DAV:   7    -0.426433590499E+02    0.88519E-06   -0.23276E-05  6312   0.380E-02    0.922E-03
DAV:   8    -0.426433584864E+02    0.56353E-06   -0.21947E-06  6648   0.121E-02    0.142E-03
DAV:   9    -0.426433584688E+02    0.17581E-07   -0.21646E-07  6360   0.457E-03    0.652E-04
DAV:  10    -0.426433584195E+02    0.49356E-07   -0.17661E-08  3776   0.105E-03    0.115E-04
DAV:  11    -0.426433584193E+02    0.13461E-09   -0.26544E-09  3136   0.478E-04
  11 F= -.42643358E+02 E0= -.42642642E+02  d E =-.715988E-02  mag=    -0.0000
 curvature:  -1.46 expect dE=-0.215E-01 dE for cont linesearch -0.688E-07
 trial: gam= 1.66360 g(F)=  0.242E-02 g(S)=  0.123E-01 ort =-0.275E-04 (trialstep = 0.401E+00)
 search vector abs. value=  0.588E-01
 bond charge predicted
       N       E                     dE             d eps       ncg     rms          rms(c)
DAV:   1    -0.426881747209E+02   -0.44816E-01   -0.14862E+00  6376   0.121E+01    0.175E+00
DAV:   2    -0.426636678454E+02    0.24507E-01   -0.15164E-01  6240   0.410E+00    0.101E+00
DAV:   3    -0.426754946324E+02   -0.11827E-01   -0.10562E-01  7104   0.511E+00    0.179E+00
DAV:   4    -0.426541546759E+02    0.21340E-01   -0.86369E-02  6816   0.584E+00    0.781E-01
DAV:   5    -0.426492097156E+02    0.49450E-02   -0.16467E-02  6752   0.158E+00    0.758E-02
DAV:   6    -0.426491961201E+02    0.13596E-04   -0.15547E-03  6104   0.352E-01    0.427E-02
DAV:   7    -0.426491840873E+02    0.12033E-04   -0.90265E-05  7368   0.942E-02    0.179E-02
DAV:   8    -0.426491857347E+02   -0.16474E-05   -0.11622E-05  6560   0.294E-02    0.418E-03
DAV:   9    -0.426491856134E+02    0.12128E-06   -0.97407E-07  7552   0.105E-02    0.174E-03
DAV:  10    -0.426491856376E+02   -0.24178E-07   -0.13820E-07  6392   0.368E-03    0.542E-04
DAV:  11    -0.426491856315E+02    0.60809E-08   -0.14886E-08  3256   0.148E-03
  12 F= -.42649186E+02 E0= -.42648447E+02  d E =-.582721E-02  mag=     0.0000
 ZBRENT: can't locate minimum, use default step
 trial-energy change:   -0.005827  1 .order   -0.005917   -0.005882   -0.005952
 step:   1.6026(harm=  1.6026)  dis= 0.00755  next Energy=   -42.667447 (dE=-0.241E-01)
 bond charge predicted
       N       E                     dE             d eps       ncg     rms          rms(c)
DAV:   1    -0.430159171468E+02   -0.36673E+00   -0.13359E+01  6400   0.363E+01    0.519E+00
DAV:   2    -0.427982362639E+02    0.21768E+00   -0.13550E+00  6176   0.121E+01    0.298E+00
DAV:   3    -0.428524357811E+02   -0.54200E-01   -0.88847E-01  7168   0.133E+01    0.452E+00
DAV:   4    -0.426946700430E+02    0.15777E+00   -0.68588E-01  6896   0.141E+01    0.182E+00
DAV:   5    -0.426659671495E+02    0.28703E-01   -0.13180E-01  6736   0.448E+00    0.195E-01
DAV:   6    -0.426664363856E+02   -0.46924E-03   -0.13363E-02  6024   0.964E-01    0.119E-01
DAV:   7    -0.426663787389E+02    0.57647E-04   -0.80594E-04  7112   0.265E-01    0.553E-02
DAV:   8    -0.426663801064E+02   -0.13675E-05   -0.10811E-04  6712   0.974E-02    0.110E-02
DAV:   9    -0.426663793564E+02    0.75002E-06   -0.80970E-06  7168   0.251E-02    0.524E-03
DAV:  10    -0.426663793151E+02    0.41206E-07   -0.10692E-06  6800   0.125E-02    0.226E-03
DAV:  11    -0.426663792713E+02    0.43803E-07   -0.18496E-07  6328   0.530E-03    0.396E-04
DAV:  12    -0.426663792739E+02   -0.25120E-08   -0.19655E-08  3704   0.108E-03
  13 F= -.42666379E+02 E0= -.42666953E+02  d E =-.230209E-01  mag=     0.0000
 curvature:  -4.84 expect dE=-0.196E+00 dE for cont linesearch -0.214E-02
 ZBRENT: increasing intervall
 opt :   4.0066  next Energy=   -42.655185 (dE=-0.118E-01)
 bond charge predicted
       N       E                     dE             d eps       ncg     rms          rms(c)
DAV:   1    -0.440481459663E+02   -0.13818E+01   -0.53400E+01  6368   0.724E+01    0.104E+01
DAV:   2    -0.431324862299E+02    0.91566E+00   -0.51945E+00  6136   0.233E+01    0.595E+00
DAV:   3    -0.437677356898E+02   -0.63525E+00   -0.53539E+00  7248   0.339E+01    0.116E+01
DAV:   4    -0.426319487026E+02    0.11358E+01   -0.27992E+00  6928   0.254E+01    0.179E+00
DAV:   5    -0.426221524327E+02    0.97963E-02   -0.35837E-01  6472   0.473E+00    0.494E-01
DAV:   6    -0.426180404797E+02    0.41120E-02   -0.13866E-02  6832   0.118E+00    0.218E-01
DAV:   7    -0.426177679824E+02    0.27250E-03   -0.25687E-03  6904   0.436E-01    0.656E-02
DAV:   8    -0.426177836326E+02   -0.15650E-04   -0.32536E-04  6896   0.185E-01    0.277E-02
DAV:   9    -0.426177834087E+02    0.22386E-06   -0.30966E-05  6720   0.686E-02    0.795E-03
DAV:  10    -0.426177828830E+02    0.52571E-06   -0.39427E-06  7096   0.244E-02    0.115E-03
DAV:  11    -0.426177828779E+02    0.50768E-08   -0.35856E-07  6080   0.438E-03    0.118E-03
DAV:  12    -0.426177828418E+02    0.36152E-07   -0.57139E-08  5920   0.304E-03    0.256E-04
DAV:  13    -0.426177828325E+02    0.93096E-08   -0.60940E-09  3168   0.987E-04
  14 F= -.42617783E+02 E0= -.42617921E+02  d E =0.255756E-01  mag=    -0.0000
 curvature:  25.32 expect dE= 0.647E+01 dE for cont linesearch  0.849E+00
 ZBRENT: bracketing found
 ZBRENT: interpolating
 opt :   1.8502  next Energy=   -42.667011 (dE=-0.237E-01)
 bond charge predicted
       N       E                     dE             d eps       ncg     rms          rms(c)
DAV:   1    -0.437951460593E+02   -0.11774E+01   -0.42949E+01  6400   0.650E+01    0.937E+00
DAV:   2    -0.430661187296E+02    0.72903E+00   -0.42021E+00  6072   0.203E+01    0.524E+00
DAV:   3    -0.435945008065E+02   -0.52838E+00   -0.43151E+00  7168   0.337E+01    0.107E+01
DAV:   4    -0.426885128618E+02    0.90599E+00   -0.26355E+00  6824   0.221E+01    0.178E+00
DAV:   5    -0.426690864818E+02    0.19426E-01   -0.27410E-01  6496   0.448E+00    0.392E-01
DAV:   6    -0.426669517147E+02    0.21348E-02   -0.11693E-02  6920   0.103E+00    0.182E-01
DAV:   7    -0.426668321479E+02    0.11957E-03   -0.17181E-03  6640   0.313E-01    0.488E-02
DAV:   8    -0.426668641657E+02   -0.32018E-04   -0.14435E-04  7184   0.110E-01    0.183E-02
DAV:   9    -0.426668639573E+02    0.20837E-06   -0.12432E-05  6200   0.317E-02    0.278E-03
DAV:  10    -0.426668635123E+02    0.44499E-06   -0.14353E-06  6640   0.122E-02    0.106E-03
DAV:  11    -0.426668635315E+02   -0.19114E-07   -0.12192E-07  5936   0.274E-03    0.291E-04
DAV:  12    -0.426668635423E+02   -0.10792E-07   -0.42777E-09  3144   0.579E-04    0.924E-05
DAV:  13    -0.426668635492E+02   -0.69467E-08   -0.14845E-09  3120   0.349E-04
  15 F= -.42666864E+02 E0= -.42667126E+02  d E =-.235051E-01  mag=     0.0000
 curvature:  -0.02 expect dE=-0.880E-03 dE for cont linesearch -0.160E-05
 trial: gam= 2.45260 g(F)=  0.568E-02 g(S)=  0.411E-01 ort =-0.224E-02 (trialstep = 0.104E+00)
 search vector abs. value=  0.390E+00
 bond charge predicted
       N       E                     dE             d eps       ncg     rms          rms(c)
DAV:   1    -0.426923476374E+02   -0.25484E-01   -0.67788E-01  6464   0.691E+00    0.123E+00
DAV:   2    -0.426792065842E+02    0.13141E-01   -0.59689E-02  6352   0.289E+00    0.803E-01
DAV:   3    -0.426796517087E+02   -0.44512E-03   -0.47912E-02  6712   0.322E+00    0.983E-01
DAV:   4    -0.426752931225E+02    0.43586E-02   -0.45740E-02  6744   0.388E+00    0.720E-01
DAV:   5    -0.426705424739E+02    0.47506E-02   -0.13727E-02  7096   0.173E+00    0.659E-02
DAV:   6    -0.426706187404E+02   -0.76267E-04   -0.14888E-03  6160   0.278E-01    0.397E-02
DAV:   7    -0.426706087305E+02    0.10010E-04   -0.75438E-05  6864   0.838E-02    0.135E-02
DAV:   8    -0.426706100149E+02   -0.12844E-05   -0.64565E-06  6872   0.241E-02    0.390E-03
DAV:   9    -0.426706099477E+02    0.67193E-07   -0.75149E-07  7368   0.102E-02    0.163E-03
DAV:  10    -0.426706099786E+02   -0.30857E-07   -0.11388E-07  6528   0.359E-03    0.554E-04
DAV:  11    -0.426706099741E+02    0.44511E-08   -0.92170E-09  3072   0.109E-03
  16 F= -.42670610E+02 E0= -.42670573E+02  d E =-.374642E-02  mag=    -0.0000
 trial-energy change:   -0.003746  1 .order   -0.003702   -0.004303   -0.003100
 step:   0.2738(harm=  0.3728)  dis= 0.00217  next Energy=   -42.673322 (dE=-0.646E-02)
 bond charge predicted
       N       E                     dE             d eps       ncg     rms          rms(c)
DAV:   1    -0.427313980289E+02   -0.60788E-01   -0.17959E+00  6440   0.112E+01    0.200E+00
DAV:   2    -0.426960058169E+02    0.35392E-01   -0.15286E-01  6360   0.464E+00    0.128E+00
DAV:   3    -0.426994347458E+02   -0.34289E-02   -0.13496E-01  6784   0.531E+00    0.164E+00
DAV:   4    -0.426858887527E+02    0.13546E-01   -0.12359E-01  6800   0.651E+00    0.112E+00
DAV:   5    -0.426742710728E+02    0.11618E-01   -0.33857E-02  7064   0.265E+00    0.107E-01
DAV:   6    -0.426744779292E+02   -0.20686E-03   -0.38767E-03  6248   0.459E-01    0.641E-02
DAV:   7    -0.426744559271E+02    0.22002E-04   -0.20629E-04  6808   0.138E-01    0.224E-02
DAV:   8    -0.426744587492E+02   -0.28221E-05   -0.17157E-05  7304   0.418E-02    0.602E-03
DAV:   9    -0.426744586467E+02    0.10257E-06   -0.16704E-06  7336   0.158E-02    0.263E-03
DAV:  10    -0.426744586817E+02   -0.35083E-07   -0.31673E-07  6544   0.608E-03    0.949E-04
DAV:  11    -0.426744586686E+02    0.13126E-07   -0.33526E-08  5016   0.208E-03    0.233E-04
DAV:  12    -0.426744586678E+02    0.78035E-09   -0.47701E-09  3016   0.644E-04
  17 F= -.42674459E+02 E0= -.42674178E+02  d E =-.759512E-02  mag=    -0.0000
 curvature:  -1.52 expect dE=-0.942E-01 dE for cont linesearch -0.132E-02
 ZBRENT: increasing intervall
 opt :   0.6128  next Energy=   -42.676849 (dE=-0.999E-02)
 bond charge predicted
       N       E                     dE             d eps       ncg     rms          rms(c)
DAV:   1    -0.429067861304E+02   -0.23233E+00   -0.72141E+00  6400   0.224E+01    0.396E+00
DAV:   2    -0.427671703387E+02    0.13962E+00   -0.60324E-01  6344   0.917E+00    0.252E+00
DAV:   3    -0.427822768081E+02   -0.15106E-01   -0.53897E-01  6776   0.103E+01    0.323E+00
DAV:   4    -0.427280763171E+02    0.54200E-01   -0.48327E-01  6728   0.116E+01    0.216E+00
DAV:   5    -0.426832945554E+02    0.44782E-01   -0.13331E-01  7024   0.513E+00    0.218E-01
DAV:   6    -0.426841864980E+02   -0.89194E-03   -0.16589E-02  6216   0.958E-01    0.135E-01
DAV:   7    -0.426840810581E+02    0.10544E-03   -0.95585E-04  6704   0.305E-01    0.501E-02
DAV:   8    -0.426840910599E+02   -0.10002E-04   -0.98690E-05  7736   0.118E-01    0.163E-02
DAV:   9    -0.426840894067E+02    0.16532E-05   -0.13146E-05  7208   0.499E-02    0.552E-03
DAV:  10    -0.426840894554E+02   -0.48771E-07   -0.18501E-06  6664   0.170E-02    0.297E-03
DAV:  11    -0.426840893576E+02    0.97798E-07   -0.33038E-07  6424   0.777E-03    0.642E-04
DAV:  12    -0.426840893521E+02    0.55243E-08   -0.55540E-08  5528   0.207E-03
  18 F= -.42684089E+02 E0= -.42684206E+02  d E =-.172258E-01  mag=     0.0000
 curvature:  -2.75 expect dE=-0.292E+00 dE for cont linesearch -0.492E-02
 ZBRENT: increasing intervall
 opt :   1.2909  next Energy=   -42.707388 (dE=-0.405E-01)
 bond charge predicted
       N       E                     dE             d eps       ncg     rms          rms(c)
DAV:   1    -0.435999622154E+02   -0.91587E+00   -0.29154E+01  6368   0.446E+01    0.793E+00
DAV:   2    -0.429962912686E+02    0.60367E+00   -0.21765E+00  6408   0.174E+01    0.479E+00
DAV:   3    -0.431431178885E+02   -0.14683E+00   -0.24651E+00  6776   0.212E+01    0.703E+00
DAV:   4    -0.427921628442E+02    0.35096E+00   -0.19515E+00  6776   0.220E+01    0.351E+00
DAV:   5    -0.426686354587E+02    0.12353E+00   -0.43501E-01  6592   0.834E+00    0.413E-01
DAV:   6    -0.426718035123E+02   -0.31681E-02   -0.58644E-02  6184   0.203E+00    0.238E-01
DAV:   7    -0.426714440403E+02    0.35947E-03   -0.32853E-03  6720   0.581E-01    0.902E-02
DAV:   8    -0.426714543748E+02   -0.10334E-04   -0.32368E-04  7392   0.165E-01    0.240E-02
DAV:   9    -0.426714484950E+02    0.58797E-05   -0.38569E-05  7120   0.807E-02    0.103E-02
DAV:  10    -0.426714485162E+02   -0.21188E-07   -0.48182E-06  7072   0.273E-02    0.380E-03
DAV:  11    -0.426714484306E+02    0.85589E-07   -0.65024E-07  6472   0.101E-02    0.627E-04
DAV:  12    -0.426714484629E+02   -0.32303E-07   -0.91810E-08  5664   0.317E-03    0.526E-04
DAV:  13    -0.426714484621E+02    0.81855E-09   -0.12846E-08  3128   0.163E-03
  19 F= -.42671448E+02 E0= -.42671621E+02  d E =-.458491E-02  mag=    -0.0000
 curvature: -13.05 expect dE=-0.282E+01 dE for cont linesearch -0.265E+00
 ZBRENT: bracketing found
 ZBRENT: interpolating
 opt :   0.7679  next Energy=   -42.686134 (dE=-0.193E-01)
 bond charge predicted
       N       E                     dE             d eps       ncg     rms          rms(c)
DAV:   1    -0.432492650114E+02   -0.57782E+00   -0.17378E+01  6376   0.346E+01    0.612E+00
DAV:   2    -0.428714984668E+02    0.37777E+00   -0.12193E+00  6336   0.119E+01    0.348E+00
DAV:   3    -0.430006101120E+02   -0.12911E+00   -0.13804E+00  7088   0.183E+01    0.629E+00
DAV:   4    -0.427291686241E+02    0.27144E+00   -0.13708E+00  6920   0.156E+01    0.230E+00
DAV:   5    -0.426872562161E+02    0.41912E-01   -0.19015E-01  6984   0.556E+00    0.205E-01
DAV:   6    -0.426883881813E+02   -0.11320E-02   -0.19679E-02  6016   0.115E+00    0.133E-01
DAV:   7    -0.426882911131E+02    0.97068E-04   -0.76060E-04  7760   0.271E-01    0.524E-02
DAV:   8    -0.426883137585E+02   -0.22645E-04   -0.97023E-05  6512   0.870E-02    0.937E-03
DAV:   9    -0.426883116808E+02    0.20777E-05   -0.12515E-05  7368   0.333E-02    0.716E-03
DAV:  10    -0.426883112832E+02    0.39759E-06   -0.21652E-06  6440   0.174E-02    0.174E-03
DAV:  11    -0.426883112436E+02    0.39627E-07   -0.14331E-07  5720   0.351E-03    0.129E-03
DAV:  12    -0.426883112398E+02    0.37617E-08   -0.88738E-08  6168   0.317E-03
  20 F= -.42688311E+02 E0= -.42688636E+02  d E =-.214477E-01  mag=    -0.0000
 curvature:  -0.10 expect dE=-0.128E-01 dE for cont linesearch -0.880E-04
 trial: gam= 1.22914 g(F)=  0.123E-01 g(S)=  0.115E+00 ort = 0.185E-01 (trialstep = 0.121E+00)
 search vector abs. value=  0.761E+00
 bond charge predicted
       N       E                     dE             d eps       ncg     rms          rms(c)
DAV:   1    -0.427679894336E+02   -0.79678E-01   -0.17690E+00  5928   0.876E+00    0.202E+00
DAV:   2    -0.427313423528E+02    0.36647E-01   -0.12667E-01  6376   0.398E+00    0.139E+00
DAV:   3    -0.427215942708E+02    0.97481E-02   -0.11290E-01  6512   0.423E+00    0.130E+00
DAV:   4    -0.427209640724E+02    0.63020E-03   -0.12643E-01  6880   0.550E+00    0.142E+00
DAV:   5    -0.427039188871E+02    0.17045E-01   -0.51933E-02  6840   0.332E+00    0.987E-02
DAV:   6    -0.427042488588E+02   -0.32997E-03   -0.47730E-03  6024   0.427E-01    0.641E-02
DAV:   7    -0.427042221045E+02    0.26754E-04   -0.19550E-04  6912   0.137E-01    0.225E-02
DAV:   8    -0.427042251582E+02   -0.30537E-05   -0.22088E-05  6848   0.398E-02    0.907E-03
DAV:   9    -0.427042248853E+02    0.27289E-06   -0.46528E-06  6864   0.235E-02    0.362E-03
DAV:  10    -0.427042247596E+02    0.12577E-06   -0.32375E-07  6440   0.569E-03    0.537E-04
DAV:  11    -0.427042247361E+02    0.23501E-07   -0.30991E-08  5440   0.151E-03    0.299E-04
DAV:  12    -0.427042247243E+02    0.11794E-07   -0.58357E-09  3088   0.785E-04    0.814E-05
DAV:  13    -0.427042247239E+02    0.37653E-09   -0.11395E-09  3016   0.256E-04
  21 F= -.42704225E+02 E0= -.42704700E+02  d E =-.159135E-01  mag=    -0.0000
 trial-energy change:   -0.015913  1 .order   -0.015738   -0.018197   -0.013279
 step:   0.3285(harm=  0.4487)  dis= 0.00669  next Energy=   -42.716449 (dE=-0.281E-01)
 bond charge predicted
       N       E                     dE             d eps       ncg     rms          rms(c)
DAV:   1    -0.429087176251E+02   -0.20449E+00   -0.52307E+00  5904   0.150E+01    0.348E+00
DAV:   2    -0.428024634741E+02    0.10625E+00   -0.39704E-01  6416   0.691E+00    0.241E+00
DAV:   3    -0.427647243782E+02    0.37739E-01   -0.31403E-01  6456   0.667E+00    0.201E+00
DAV:   4    -0.427560858062E+02    0.86386E-02   -0.28369E-01  7272   0.794E+00    0.217E+00
DAV:   5    -0.427190540778E+02    0.37032E-01   -0.12570E-01  6736   0.500E+00    0.152E-01
DAV:   6    -0.427197237573E+02   -0.66968E-03   -0.10598E-02  6016   0.676E-01    0.105E-01
DAV:   7    -0.427196688025E+02    0.54955E-04   -0.50175E-04  6760   0.232E-01    0.351E-02
DAV:   8    -0.427196795839E+02   -0.10781E-04   -0.61719E-05  6928   0.580E-02    0.170E-02
DAV:   9    -0.427196776341E+02    0.19498E-05   -0.11922E-05  6416   0.369E-02    0.420E-03
DAV:  10    -0.427196774945E+02    0.13964E-06   -0.72530E-07  6392   0.823E-03    0.618E-04
DAV:  11    -0.427196774499E+02    0.44603E-07   -0.55287E-08  5816   0.232E-03    0.358E-04
DAV:  12    -0.427196774332E+02    0.16646E-07   -0.45317E-09  3264   0.662E-04    0.115E-04
DAV:  13    -0.427196774316E+02    0.16335E-08   -0.12957E-09  3080   0.260E-04
  22 F= -.42719677E+02 E0= -.42720022E+02  d E =-.313662E-01  mag=     0.0000
 curvature:  -0.99 expect dE=-0.981E-01 dE for cont linesearch -0.233E-02
 ZBRENT: increasing intervall
 opt :   0.7431  next Energy=   -42.709445 (dE=-0.211E-01)
 bond charge predicted
       N       E                     dE             d eps       ncg     rms          rms(c)
DAV:   1    -0.434891731688E+02   -0.76950E+00   -0.21423E+01  5944   0.304E+01    0.717E+00
DAV:   2    -0.430799575752E+02    0.40922E+00   -0.18671E+00  6432   0.146E+01    0.510E+00
DAV:   3    -0.428873042697E+02    0.19265E+00   -0.13898E+00  6456   0.140E+01    0.401E+00
DAV:   4    -0.428930918847E+02   -0.57876E-02   -0.13242E+00  7384   0.157E+01    0.503E+00
DAV:   5    -0.427097063788E+02    0.18339E+00   -0.63430E-01  6720   0.101E+01    0.293E-01
DAV:   6    -0.427126901007E+02   -0.29837E-02   -0.44882E-02  6024   0.136E+00    0.196E-01
DAV:   7    -0.427124745103E+02    0.21559E-03   -0.15310E-03  6864   0.388E-01    0.739E-02
DAV:   8    -0.427125127165E+02   -0.38206E-04   -0.27287E-04  6848   0.135E-01    0.315E-02
DAV:   9    -0.427125049361E+02    0.77804E-05   -0.49944E-05  6360   0.780E-02    0.670E-03
DAV:  10    -0.427125047992E+02    0.13694E-06   -0.22614E-06  6304   0.137E-02    0.102E-03
DAV:  11    -0.427125047322E+02    0.66984E-07   -0.18288E-07  6248   0.340E-03    0.727E-04
DAV:  12    -0.427125047170E+02    0.15136E-07   -0.17578E-08  3768   0.138E-03    0.157E-04
DAV:  13    -0.427125047163E+02    0.72214E-09   -0.51052E-09  3128   0.453E-04
  23 F= -.42712505E+02 E0= -.42712830E+02  d E =-.241935E-01  mag=     0.0000
 curvature:   4.33 expect dE= 0.423E+00 dE for cont linesearch  0.419E-01
 ZBRENT: bracketing found
 ZBRENT: interpolating
 opt :   0.4656  next Energy=   -42.722584 (dE=-0.343E-01)
 bond charge predicted
       N       E                     dE             d eps       ncg     rms          rms(c)
DAV:   1    -0.430868909217E+02   -0.37439E+00   -0.97837E+00  5992   0.209E+01    0.486E+00
DAV:   2    -0.429068428020E+02    0.18005E+00   -0.10109E+00  6432   0.113E+01    0.370E+00
DAV:   3    -0.428001944807E+02    0.10665E+00   -0.67053E-01  6408   0.924E+00    0.250E+00
DAV:   4    -0.427706177130E+02    0.29577E-01   -0.37381E-01  7288   0.877E+00    0.247E+00
DAV:   5    -0.427222993119E+02    0.48318E-01   -0.17539E-01  6896   0.652E+00    0.209E-01
DAV:   6    -0.427232331766E+02   -0.93386E-03   -0.17698E-02  6032   0.903E-01    0.127E-01
DAV:   7    -0.427231206386E+02    0.11254E-03   -0.61111E-04  7504   0.234E-01    0.472E-02
DAV:   8    -0.427231390781E+02   -0.18439E-04   -0.13683E-04  6568   0.100E-01    0.198E-02
DAV:   9    -0.427231350359E+02    0.40422E-05   -0.18747E-05  6496   0.456E-02    0.425E-03
DAV:  10    -0.427231352388E+02   -0.20292E-06   -0.10177E-06  6392   0.980E-03    0.112E-03
DAV:  11    -0.427231352533E+02   -0.14516E-07   -0.15107E-07  6528   0.385E-03    0.511E-04
DAV:  12    -0.427231352750E+02   -0.21688E-07   -0.11636E-08  3552   0.101E-03    0.119E-04
DAV:  13    -0.427231352770E+02   -0.19245E-08   -0.16473E-09  3072   0.318E-04
  24 F= -.42723135E+02 E0= -.42723254E+02  d E =-.348240E-01  mag=    -0.0000
 curvature:  -0.30 expect dE=-0.283E-01 dE for cont linesearch -0.139E-04
 trial: gam=-0.01334 g(F)=  0.721E-02 g(S)=  0.870E-01 ort = 0.594E-02 (trialstep = 0.190E+00)
 search vector abs. value=  0.942E-01
 bond charge predicted
       N       E                     dE             d eps       ncg     rms          rms(c)
DAV:   1    -0.427906535896E+02   -0.67518E-01   -0.76081E-01  6768   0.999E+00    0.230E+00
DAV:   2    -0.428494821957E+02   -0.58829E-01   -0.75276E-01  6400   0.962E+00    0.301E+00
DAV:   3    -0.427421534911E+02    0.10733E+00   -0.31913E-01  6352   0.640E+00    0.531E-01
DAV:   4    -0.427452403055E+02   -0.30868E-02   -0.36522E-02  7720   0.264E+00    0.901E-01
DAV:   5    -0.427388977217E+02    0.63426E-02   -0.21375E-02  7064   0.235E+00    0.122E-01
DAV:   6    -0.427388849061E+02    0.12816E-04   -0.17580E-03  6464   0.290E-01    0.350E-02
DAV:   7    -0.427388790340E+02    0.58721E-05   -0.49298E-05  7296   0.749E-02    0.148E-02
DAV:   8    -0.427388786933E+02    0.34067E-06   -0.11041E-05  6712   0.323E-02    0.588E-03
DAV:   9    -0.427388781126E+02    0.58072E-06   -0.21179E-06  6432   0.189E-02    0.149E-03
DAV:  10    -0.427388779325E+02    0.18007E-06   -0.12749E-07  5744   0.338E-03    0.499E-04
DAV:  11    -0.427388778875E+02    0.45055E-07   -0.81556E-09  3120   0.908E-04    0.663E-05
DAV:  12    -0.427388778755E+02    0.11936E-07   -0.25847E-09  3088   0.390E-04    0.404E-05
DAV:  13    -0.427388778756E+02   -0.38199E-10   -0.47880E-10  3024   0.177E-04
  25 F= -.42738878E+02 E0= -.42738968E+02  d E =-.157426E-01  mag=    -0.0000
 ZBRENT: can't locate minimum, use default step
 trial-energy change:   -0.015743  1 .order   -0.015713   -0.017898   -0.013529
 step:   0.7605(harm=  0.7788)  dis= 0.00646  next Energy=   -42.759793 (dE=-0.367E-01)
 bond charge predicted
       N       E                     dE             d eps       ncg     rms          rms(c)
DAV:   1    -0.432404111372E+02   -0.50153E+00   -0.69201E+00  6824   0.300E+01    0.710E+00
DAV:   2    -0.438039289729E+02   -0.56352E+00   -0.70388E+00  6344   0.296E+01    0.906E+00
DAV:   3    -0.427856088845E+02    0.10183E+01   -0.29933E+00  6328   0.198E+01    0.146E+00
DAV:   4    -0.427883053074E+02   -0.26964E-02   -0.20137E-01  7848   0.539E+00    0.192E+00
DAV:   5    -0.427618177092E+02    0.26488E-01   -0.10137E-01  7016   0.544E+00    0.493E-01
DAV:   6    -0.427601120923E+02    0.17056E-02   -0.13685E-02  6576   0.105E+00    0.878E-02
DAV:   7    -0.427600853870E+02    0.26705E-04   -0.52348E-04  6584   0.215E-01    0.365E-02
DAV:   8    -0.427600925754E+02   -0.71884E-05   -0.82111E-05  6384   0.872E-02    0.167E-02
DAV:   9    -0.427600890783E+02    0.34972E-05   -0.16445E-05  6432   0.480E-02    0.585E-03
DAV:  10    -0.427600882471E+02    0.83117E-06   -0.14044E-06  6480   0.128E-02    0.686E-04
DAV:  11    -0.427600882265E+02    0.20613E-07   -0.50998E-08  5992   0.145E-03    0.322E-04
DAV:  12    -0.427600882028E+02    0.23632E-07   -0.37306E-09  3152   0.631E-04    0.929E-05
DAV:  13    -0.427600882032E+02   -0.31832E-09   -0.13014E-09  3048   0.385E-04
  26 F= -.42760088E+02 E0= -.42760134E+02  d E =-.369529E-01  mag=     0.0000
 curvature:  -0.39 expect dE=-0.365E-02 dE for cont linesearch -0.361E-04
 ZBRENT: extrapolating
 opt :   0.7853  next Energy=   -42.760125 (dE=-0.370E-01)
 bond charge predicted
       N       E                     dE             d eps       ncg     rms          rms(c)
DAV:   1    -0.427610147839E+02   -0.92658E-03   -0.13280E-02  6760   0.132E+00    0.298E-01
DAV:   2    -0.427619429835E+02   -0.92820E-03   -0.12714E-02  6384   0.126E+00    0.386E-01
DAV:   3    -0.427601855472E+02    0.17574E-02   -0.52781E-03  6312   0.831E-01    0.743E-02
DAV:   4    -0.427602552576E+02   -0.69710E-04   -0.73974E-04  7544   0.393E-01    0.128E-01
DAV:   5    -0.427601230146E+02    0.13224E-03   -0.42038E-04  7128   0.312E-01    0.141E-02
DAV:   6    -0.427601235627E+02   -0.54809E-06   -0.30750E-05  6200   0.358E-02    0.481E-03
DAV:   7    -0.427601233999E+02    0.16274E-06   -0.83477E-07  7448   0.101E-02    0.209E-03
DAV:   8    -0.427601232578E+02    0.14213E-06   -0.14153E-07  6056   0.330E-03    0.349E-04
DAV:   9    -0.427601232389E+02    0.18896E-07   -0.12193E-08  3136   0.154E-03    0.153E-04
DAV:  10    -0.427601232141E+02    0.24778E-07   -0.25723E-09  2992   0.435E-04    0.377E-05
DAV:  11    -0.427601232127E+02    0.14807E-08   -0.57709E-10  2912   0.212E-04
  27 F= -.42760123E+02 E0= -.42760170E+02  d E =-.369879E-01  mag=    -0.0000
 curvature:  -0.39 expect dE=-0.390E-02 dE for cont linesearch -0.574E-08
 trial: gam= 0.10555 g(F)=  0.110E-02 g(S)=  0.881E-02 ort = 0.370E-04 (trialstep = 0.309E+00)
 search vector abs. value=  0.110E-01
 bond charge predicted
       N       E                     dE             d eps       ncg     rms          rms(c)
DAV:   1    -0.427957532819E+02   -0.35630E-01   -0.38081E-01  6344   0.101E+01    0.194E+00
DAV:   2    -0.428440652833E+02   -0.48312E-01   -0.58534E-01  6392   0.849E+00    0.261E+00
DAV:   3    -0.427637229443E+02    0.80342E-01   -0.24837E-01  6320   0.564E+00    0.431E-01
DAV:   4    -0.427641246179E+02   -0.40167E-03   -0.14584E-02  7656   0.155E+00    0.449E-01
DAV:   5    -0.427623575486E+02    0.17671E-02   -0.46216E-03  7000   0.970E-01    0.462E-02
DAV:   6    -0.427623826010E+02   -0.25052E-04   -0.46933E-04  5984   0.145E-01    0.204E-02
DAV:   7    -0.427623797366E+02    0.28644E-05   -0.21970E-05  6584   0.527E-02    0.109E-02
DAV:   8    -0.427623802042E+02   -0.46757E-06   -0.29458E-06  6200   0.146E-02    0.153E-03
DAV:   9    -0.427623803732E+02   -0.16907E-06   -0.32977E-07  6344   0.499E-03    0.119E-03
DAV:  10    -0.427623805707E+02   -0.19747E-06   -0.69573E-08  5680   0.270E-03    0.408E-04
DAV:  11    -0.427623805688E+02    0.19500E-08   -0.94235E-09  3072   0.120E-03
  28 F= -.42762381E+02 E0= -.42762418E+02  d E =-.225736E-02  mag=    -0.0000
 trial-energy change:   -0.002257  1 .order   -0.002264   -0.003065   -0.001463
 step:   0.6061(harm=  0.5915)  dis= 0.00250  next Energy=   -42.763077 (dE=-0.295E-02)
 bond charge predicted
       N       E                     dE             d eps       ncg     rms          rms(c)
DAV:   1    -0.427937736237E+02   -0.31393E-01   -0.35028E-01  6336   0.973E+00    0.186E+00
DAV:   2    -0.428387433978E+02   -0.44970E-01   -0.54091E-01  6392   0.815E+00    0.252E+00
DAV:   3    -0.427642742534E+02    0.74469E-01   -0.22989E-01  6328   0.542E+00    0.414E-01
DAV:   4    -0.427646498495E+02   -0.37560E-03   -0.13439E-02  7688   0.149E+00    0.431E-01
DAV:   5    -0.427630248908E+02    0.16250E-02   -0.42500E-03  7024   0.928E-01    0.446E-02
DAV:   6    -0.427630476531E+02   -0.22762E-04   -0.43273E-04  6008   0.140E-01    0.195E-02
DAV:   7    -0.427630450480E+02    0.26051E-05   -0.19951E-05  6648   0.500E-02    0.105E-02
DAV:   8    -0.427630455274E+02   -0.47942E-06   -0.27210E-06  6192   0.140E-02    0.141E-03
DAV:   9    -0.427630456908E+02   -0.16342E-06   -0.29473E-07  6320   0.470E-03    0.113E-03
DAV:  10    -0.427630458803E+02   -0.18950E-06   -0.61540E-08  5624   0.252E-03    0.386E-04
DAV:  11    -0.427630458766E+02    0.37817E-08   -0.84449E-09  3072   0.113E-03
  29 F= -.42763046E+02 E0= -.42763075E+02  d E =-.292266E-02  mag=     0.0000
 curvature:  -0.33 expect dE=-0.252E-03 dE for cont linesearch -0.137E-05
 trial: gam= 0.10355 g(F)=  0.439E-03 g(S)=  0.333E-03 ort =-0.214E-03 (trialstep = 0.369E+00)
 search vector abs. value=  0.845E-03
 bond charge predicted
       N       E                     dE             d eps       ncg     rms          rms(c)
DAV:   1    -0.427619904532E+02    0.10554E-02   -0.39006E-02  7744   0.584E+00    0.107E-01
DAV:   2    -0.427633408971E+02   -0.13504E-02   -0.14742E-02  5672   0.815E-01    0.706E-02
DAV:   3    -0.427633618311E+02   -0.20934E-04   -0.62311E-04  7576   0.316E-01    0.800E-02
DAV:   4    -0.427633171882E+02    0.44643E-04   -0.30257E-04  7072   0.263E-01    0.424E-02
DAV:   5    -0.427633073246E+02    0.98637E-05   -0.97713E-05  7232   0.133E-01    0.253E-02
DAV:   6    -0.427633000879E+02    0.72367E-05   -0.22472E-05  6384   0.598E-02    0.507E-03
DAV:   7    -0.427633000968E+02   -0.89494E-08   -0.18775E-06  6688   0.146E-02    0.181E-03
DAV:   8    -0.427633001654E+02   -0.68543E-07   -0.18959E-07  5960   0.403E-03    0.592E-04
DAV:   9    -0.427633001562E+02    0.92077E-08   -0.22931E-08  3648   0.158E-03
  30 F= -.42763300E+02 E0= -.42763338E+02  d E =-.254280E-03  mag=    -0.0000
 ZBRENT: can't locate minimum, use default step
 trial-energy change:   -0.000254  1 .order   -0.000254   -0.000276   -0.000231
 step:   1.4742(harm=  2.2582)  dis= 0.00459  next Energy=   -42.763893 (dE=-0.847E-03)
 bond charge predicted
       N       E                     dE             d eps       ncg     rms          rms(c)
DAV:   1    -0.427521537345E+02    0.11146E-01   -0.35256E-01  7736   0.175E+01    0.320E-01
DAV:   2    -0.427641732820E+02   -0.12020E-01   -0.13122E-01  5648   0.244E+00    0.211E-01
DAV:   3    -0.427643371906E+02   -0.16391E-03   -0.54044E-03  7584   0.929E-01    0.236E-01
DAV:   4    -0.427639537811E+02    0.38341E-03   -0.26831E-03  7024   0.786E-01    0.130E-01
DAV:   5    -0.427638548514E+02    0.98930E-04   -0.90851E-04  7200   0.408E-01    0.757E-02
DAV:   6    -0.427637925772E+02    0.62274E-04   -0.20180E-04  6408   0.181E-01    0.149E-02
DAV:   7    -0.427637925499E+02    0.27288E-07   -0.17061E-05  6672   0.437E-02    0.532E-03
DAV:   8    -0.427637928630E+02   -0.31309E-06   -0.17158E-06  6760   0.121E-02    0.179E-03
DAV:   9    -0.427637928317E+02    0.31321E-07   -0.22076E-07  6520   0.459E-03    0.577E-04
DAV:  10    -0.427637928142E+02    0.17448E-07   -0.15396E-08  3312   0.152E-03    0.141E-04
DAV:  11    -0.427637928090E+02    0.52078E-08   -0.27713E-09  2952   0.463E-04
  31 F= -.42763793E+02 E0= -.42763861E+02  d E =-.746932E-03  mag=     0.0000
 curvature:  -1.05 expect dE=-0.129E-03 dE for cont linesearch -0.851E-04
 ZBRENT: increasing intervall
 opt :   3.6855  next Energy=   -42.763560 (dE=-0.514E-03)
 bond charge predicted
       N       E                     dE             d eps       ncg     rms          rms(c)
DAV:   1    -0.427176005509E+02    0.46192E-01   -0.14163E+00  7792   0.351E+01    0.635E-01
DAV:   2    -0.427651206073E+02   -0.47520E-01   -0.51873E-01  5656   0.487E+00    0.418E-01
DAV:   3    -0.427655756576E+02   -0.45505E-03   -0.20448E-02  7592   0.176E+00    0.448E-01
DAV:   4    -0.427642712390E+02    0.13044E-02   -0.10403E-02  7016   0.155E+00    0.276E-01
DAV:   5    -0.427638003438E+02    0.47090E-03   -0.39830E-03  7224   0.873E-01    0.153E-01
DAV:   6    -0.427635530273E+02    0.24732E-03   -0.82499E-04  6448   0.372E-01    0.282E-02
DAV:   7    -0.427635536608E+02   -0.63349E-06   -0.73435E-05  6464   0.882E-02    0.102E-02
DAV:   8    -0.427635545805E+02   -0.91971E-06   -0.69541E-06  6488   0.244E-02    0.377E-03
DAV:   9    -0.427635545188E+02    0.61686E-07   -0.92350E-07  6688   0.921E-03    0.108E-03
DAV:  10    -0.427635544803E+02    0.38550E-07   -0.68693E-08  6088   0.295E-03    0.308E-04
DAV:  11    -0.427635544705E+02    0.97207E-08   -0.42914E-09  2992   0.627E-04
  32 F= -.42763554E+02 E0= -.42763695E+02  d E =-.508594E-03  mag=    -0.0000
 curvature:   2.88 expect dE= 0.111E-02 dE for cont linesearch  0.789E-03
 ZBRENT: bracketing found
 ZBRENT: interpolating
 opt :   2.2521  next Energy=   -42.763894 (dE=-0.849E-03)
 bond charge predicted
       N       E                     dE             d eps       ncg     rms          rms(c)
DAV:   1    -0.427450131322E+02    0.18541E-01   -0.59870E-01  7872   0.227E+01    0.415E-01
DAV:   2    -0.427645676867E+02   -0.19555E-01   -0.21426E-01  5640   0.311E+00    0.281E-01
DAV:   3    -0.427650072506E+02   -0.43956E-03   -0.10035E-02  7680   0.133E+00    0.341E-01
DAV:   4    -0.427641051409E+02    0.90211E-03   -0.47724E-03  7040   0.104E+00    0.144E-01
DAV:   5    -0.427639869680E+02    0.11817E-03   -0.12747E-03  7024   0.451E-01    0.921E-02
DAV:   6    -0.427638967201E+02    0.90248E-04   -0.30870E-04  6352   0.218E-01    0.203E-02
DAV:   7    -0.427638956557E+02    0.10644E-05   -0.23064E-05  7160   0.534E-02    0.714E-03
DAV:   8    -0.427638958228E+02   -0.16704E-06   -0.27417E-06  6832   0.152E-02    0.210E-03
DAV:   9    -0.427638958491E+02   -0.26324E-07   -0.32777E-07  6568   0.599E-03    0.758E-04
DAV:  10    -0.427638958602E+02   -0.11107E-07   -0.26154E-08  4304   0.188E-03    0.162E-04
DAV:  11    -0.427638958677E+02   -0.75161E-08   -0.29426E-09  2952   0.526E-04
  33 F= -.42763896E+02 E0= -.42763989E+02  d E =-.849991E-03  mag=    -0.0000
 curvature:  -0.37 expect dE=-0.156E-04 dE for cont linesearch -0.119E-08
 trial: gam= 0.02400 g(F)=  0.394E-04 g(S)=  0.261E-05 ort = 0.165E-05 (trialstep = 0.745E+00)
 search vector abs. value=  0.426E-04
 bond charge predicted
       N       E                     dE             d eps       ncg     rms          rms(c)
DAV:   1    -0.427638223201E+02    0.73540E-04   -0.25000E-03  6600   0.145E+00    0.470E-02
DAV:   2    -0.427639466699E+02   -0.12435E-03   -0.13373E-03  6192   0.280E-01    0.467E-02
DAV:   3    -0.427639230818E+02    0.23588E-04   -0.13350E-04  6368   0.130E-01    0.191E-02
DAV:   4    -0.427639192037E+02    0.38780E-05   -0.69318E-06  6576   0.268E-02    0.804E-03
DAV:   5    -0.427639183560E+02    0.84771E-06   -0.31254E-06  7504   0.209E-02    0.563E-03
DAV:   6    -0.427639181461E+02    0.20992E-06   -0.14896E-06  6696   0.184E-02    0.169E-03
DAV:   7    -0.427639180856E+02    0.60503E-07   -0.18075E-07  6408   0.495E-03    0.586E-04
DAV:   8    -0.427639180765E+02    0.90567E-08   -0.20544E-08  3848   0.135E-03
  34 F= -.42763918E+02 E0= -.42764016E+02  d E =-.222088E-04  mag=     0.0000
 trial-energy change:   -0.000022  1 .order   -0.000022   -0.000031   -0.000013
 step:   1.2689(harm=  1.2689)  dis= 0.00108  next Energy=   -42.763923 (dE=-0.267E-04)
 bond charge predicted
       N       E                     dE             d eps       ncg     rms          rms(c)
DAV:   1    -0.427638753561E+02    0.42729E-04   -0.12345E-03  6600   0.102E+00    0.330E-02
DAV:   2    -0.427639371347E+02   -0.61779E-04   -0.66069E-04  6184   0.197E-01    0.328E-02
DAV:   3    -0.427639252781E+02    0.11857E-04   -0.65907E-05  6392   0.915E-02    0.134E-02
DAV:   4    -0.427639233396E+02    0.19385E-05   -0.34238E-06  6544   0.190E-02    0.572E-03
DAV:   5    -0.427639230619E+02    0.27768E-06   -0.23592E-06  7528   0.207E-02    0.642E-03
DAV:   6    -0.427639227454E+02    0.31658E-06   -0.13931E-06  6832   0.180E-02    0.885E-04
DAV:   7    -0.427639227138E+02    0.31534E-07   -0.11517E-07  5816   0.281E-03    0.454E-04
DAV:   8    -0.427639227107E+02    0.31305E-08   -0.81286E-09  3032   0.993E-04
  35 F= -.42763923E+02 E0= -.42764024E+02  d E =-.268430E-04  mag=     0.0000
 curvature:  -0.64 expect dE=-0.200E-05 dE for cont linesearch -0.879E-09
 trial: gam= 0.06918 g(F)=  0.503E-06 g(S)=  0.262E-05 ort = 0.242E-06 (trialstep = 0.850E+00)
 search vector abs. value=  0.336E-05
 reached required accuracy - stopping structural energy minimisation
 writing wavefunctions
