       N       E                     dE             d eps       ncg     rms          rms(c)
DAV:   1     0.612685238008E+03    0.61269E+03   -0.31882E+04  5136   0.173E+03
DAV:   2     0.367573356271E+01   -0.60901E+03   -0.58706E+03  4420   0.549E+02
DAV:   3    -0.303585733745E+02   -0.34034E+02   -0.32385E+02  4884   0.149E+02
DAV:   4    -0.312555857114E+02   -0.89701E+00   -0.89113E+00  4812   0.234E+01
DAV:   5    -0.312801995535E+02   -0.24614E-01   -0.24610E-01  5160   0.411E+00    0.269E+01
DAV:   6    -0.536653430140E+02   -0.22385E+02   -0.19835E+02  5384   0.179E+02    0.388E+01
DAV:   7    -0.264225118937E+02    0.27243E+02   -0.74809E+01  5296   0.852E+01    0.143E+01
DAV:   8    -0.251080191853E+02    0.13145E+01   -0.40449E+00  5680   0.276E+01    0.840E+00
DAV:   9    -0.256108673751E+02   -0.50285E+00   -0.11757E+01  5508   0.304E+01    0.127E+01
DAV:  10    -0.248370197611E+02    0.77385E+00   -0.55588E+00  5204   0.245E+01    0.411E+00
DAV:  11    -0.249435509043E+02   -0.10653E+00   -0.53850E-01  5320   0.654E+00    0.456E+00
DAV:  12    -0.248278072264E+02    0.11574E+00   -0.14284E-01  5716   0.590E+00    0.244E+00
DAV:  13    -0.247914345614E+02    0.36373E-01   -0.96628E-02  6008   0.404E+00    0.892E-01
DAV:  14    -0.247908023318E+02    0.63223E-03   -0.15553E-02  6036   0.136E+00    0.385E-01
DAV:  15    -0.247909444764E+02   -0.14214E-03   -0.32679E-03  5384   0.580E-01    0.283E-01
DAV:  16    -0.247910527172E+02   -0.10824E-03   -0.61631E-04  4988   0.224E-01    0.243E-01
DAV:  17    -0.247909558501E+02    0.96867E-04   -0.19651E-04  5776   0.246E-01    0.160E-01
DAV:  18    -0.247908492411E+02    0.10661E-03   -0.25936E-04  6088   0.251E-01    0.525E-02
DAV:  19    -0.247908422047E+02    0.70364E-05   -0.11553E-04  6344   0.108E-01    0.181E-02
DAV:  20    -0.247908431852E+02   -0.98049E-06   -0.80987E-06  4664   0.263E-02    0.181E-02
DAV:  21    -0.247908419943E+02    0.11909E-05   -0.30854E-06  5524   0.136E-02    0.109E-02
DAV:  22    -0.247908415518E+02    0.44250E-06   -0.30045E-06  5612   0.204E-02    0.142E-03
DAV:  23    -0.247908416176E+02   -0.65816E-07   -0.23848E-07  4264   0.392E-03    0.965E-04
DAV:  24    -0.247908416015E+02    0.16038E-07   -0.84439E-08  3980   0.422E-03    0.116E-03
DAV:  25    -0.247908416174E+02   -0.15842E-07   -0.30826E-08  2508   0.256E-03    0.280E-04
DAV:  26    -0.247908416278E+02   -0.10423E-07   -0.28784E-09  2312   0.564E-04    0.224E-04
DAV:  27    -0.247908416252E+02    0.25902E-08   -0.29140E-09  2244   0.686E-04
   1 F= -.24790842E+02 E0= -.24791487E+02  d E =-.247908E+02  mag=     0.2894
       N       E                     dE             d eps       ncg     rms          rms(c)
DAV:   1    -0.133022760810E+03   -0.10823E+03   -0.13257E+03  4536   0.508E+02    0.799E+01
DAV:   2    -0.752597415151E+02    0.57763E+02   -0.72584E+02  5144   0.246E+02    0.602E+01
DAV:   3    -0.466235063496E+02    0.28636E+02   -0.47661E+02  5276   0.177E+02    0.330E+01
DAV:   4    -0.330866811268E+02    0.13537E+02   -0.60933E+01  4776   0.700E+01    0.224E+01
DAV:   5    -0.268892532079E+02    0.61974E+01   -0.11905E+01  5104   0.358E+01    0.992E+00
DAV:   6    -0.268120151220E+02    0.77238E-01   -0.62026E+00  6024   0.420E+01    0.183E+01
DAV:   7    -0.255781845093E+02    0.12338E+01   -0.67935E+00  4768   0.173E+01    0.354E+00
DAV:   8    -0.254564921373E+02    0.12169E+00   -0.41174E-01  5500   0.707E+00    0.104E+00
DAV:   9    -0.254619802405E+02   -0.54881E-02   -0.92660E-02  4656   0.224E+00    0.998E-01
DAV:  10    -0.254561280131E+02    0.58522E-02   -0.25710E-02  5140   0.199E+00    0.597E-01
DAV:  11    -0.254533623773E+02    0.27656E-02   -0.71996E-03  5104   0.823E-01    0.343E-01
DAV:  12    -0.254526389786E+02    0.72340E-03   -0.52845E-03  4760   0.739E-01    0.808E-02
DAV:  13    -0.254526175299E+02    0.21449E-04   -0.22633E-04  4652   0.142E-01    0.485E-02
DAV:  14    -0.254525613467E+02    0.56183E-04   -0.19409E-04  4540   0.103E-01    0.479E-02
DAV:  15    -0.254525500549E+02    0.11292E-04   -0.10053E-04  5140   0.135E-01    0.157E-02
DAV:  16    -0.254525494742E+02    0.58075E-06   -0.55044E-06  4604   0.244E-02    0.873E-03
DAV:  17    -0.254525490754E+02    0.39873E-06   -0.96773E-07  6040   0.929E-03    0.377E-03
DAV:  18    -0.254525489824E+02    0.93061E-07   -0.49674E-07  5652   0.736E-03    0.449E-04
DAV:  19    -0.254525489756E+02    0.67721E-08   -0.34681E-08  3772   0.167E-03
   2 F= -.25452549E+02 E0= -.25452769E+02  d E =-.661707E+00  mag=     0.0000
       N       E                     dE             d eps       ncg     rms          rms(c)
DAV:   1    -0.467492952976E+02   -0.21297E+02   -0.20739E+02  4720   0.150E+02    0.484E+01
DAV:   2    -0.866602720178E+02   -0.39911E+02   -0.45225E+02  5256   0.264E+02    0.483E+01
DAV:   3    -0.293260887266E+02    0.57334E+02   -0.17881E+02  5108   0.119E+02    0.145E+01
DAV:   4    -0.261915934730E+02    0.31345E+01   -0.17228E+01  5408   0.449E+01    0.117E+01
DAV:   5    -0.261692428474E+02    0.22351E-01   -0.82240E+00  5212   0.321E+01    0.905E+00
DAV:   6    -0.262773023065E+02   -0.10806E+00   -0.24413E+00  5296   0.182E+01    0.687E+00
DAV:   7    -0.256901542848E+02    0.58715E+00   -0.11190E+00  5292   0.975E+00    0.256E+00
DAV:   8    -0.256834210757E+02    0.67332E-02   -0.63177E-02  4592   0.207E+00    0.215E+00
DAV:   9    -0.256635254212E+02    0.19896E-01   -0.24134E-02  6032   0.177E+00    0.126E+00
DAV:  10    -0.256575063102E+02    0.60191E-02   -0.61027E-03  4680   0.773E-01    0.937E-01
DAV:  11    -0.256514222964E+02    0.60840E-02   -0.10709E-02  5200   0.104E+00    0.384E-01
DAV:  12    -0.256502151513E+02    0.12071E-02   -0.37209E-03  5232   0.528E-01    0.100E-01
DAV:  13    -0.256502015882E+02    0.13563E-04   -0.25306E-04  5708   0.130E-01    0.743E-02
DAV:  14    -0.256501588501E+02    0.42738E-04   -0.12837E-04  4608   0.112E-01    0.356E-02
DAV:  15    -0.256501497841E+02    0.90660E-05   -0.17699E-05  5232   0.526E-02    0.163E-02
DAV:  16    -0.256501478411E+02    0.19430E-05   -0.47844E-06  5072   0.231E-02    0.584E-03
DAV:  17    -0.256501478502E+02   -0.91150E-08   -0.19988E-06  5088   0.930E-03    0.265E-03
DAV:  18    -0.256501478257E+02    0.24535E-07   -0.33778E-07  4248   0.650E-03    0.113E-03
DAV:  19    -0.256501478329E+02   -0.72050E-08   -0.47068E-08  4152   0.167E-03
   3 F= -.25650148E+02 E0= -.25649502E+02  d E =-.859306E+00  mag=     0.0001
       N       E                     dE             d eps       ncg     rms          rms(c)
DAV:   1    -0.280809041776E+02   -0.24308E+01   -0.27473E+01  4648   0.571E+01    0.168E+01
DAV:   2    -0.355076681057E+02   -0.74268E+01   -0.73532E+01  5240   0.897E+01    0.235E+01
DAV:   3    -0.258735370520E+02    0.96341E+01   -0.21777E+01  5168   0.630E+01    0.323E+00
DAV:   4    -0.259733088522E+02   -0.99772E-01   -0.29122E+00  5264   0.181E+01    0.479E+00
DAV:   5    -0.260422908284E+02   -0.68982E-01   -0.14067E+00  5272   0.197E+01    0.591E+00
DAV:   6    -0.258439148065E+02    0.19838E+00   -0.15491E+00  5480   0.102E+01    0.109E+00
DAV:   7    -0.258411026352E+02    0.28122E-02   -0.44224E-02  4568   0.182E+00    0.955E-01
DAV:   8    -0.258344456818E+02    0.66570E-02   -0.19886E-02  5840   0.136E+00    0.192E-01
DAV:   9    -0.258347412384E+02   -0.29556E-03   -0.18100E-03  4608   0.457E-01    0.223E-01
DAV:  10    -0.258344087907E+02    0.33245E-03   -0.13003E-03  5416   0.378E-01    0.341E-02
DAV:  11    -0.258344195010E+02   -0.10710E-04   -0.71325E-05  4604   0.890E-02    0.408E-02
DAV:  12    -0.258344076020E+02    0.11899E-04   -0.70530E-05  5532   0.800E-02    0.120E-02
DAV:  13    -0.258344074490E+02    0.15303E-06   -0.44683E-06  4860   0.245E-02    0.369E-03
DAV:  14    -0.258344074724E+02   -0.23474E-07   -0.26682E-07  5652   0.511E-03    0.165E-03
DAV:  15    -0.258344074698E+02    0.26630E-08   -0.22753E-08  3272   0.164E-03
   4 F= -.25834407E+02 E0= -.25834850E+02  d E =-.184260E+00  mag=     0.0000
       N       E                     dE             d eps       ncg     rms          rms(c)
DAV:   1    -0.269988220422E+02   -0.11644E+01   -0.13924E+01  4608   0.419E+01    0.117E+01
DAV:   2    -0.306957774967E+02   -0.36970E+01   -0.36262E+01  5224   0.621E+01    0.178E+01
DAV:   3    -0.259480628437E+02    0.47477E+01   -0.11535E+01  5072   0.511E+01    0.421E+00
DAV:   4    -0.260132161645E+02   -0.65153E-01   -0.25904E+00  5112   0.210E+01    0.445E+00
DAV:   5    -0.259211115559E+02    0.92105E-01   -0.97320E-01  5504   0.149E+01    0.235E+00
DAV:   6    -0.258769549927E+02    0.44157E-01   -0.29575E-01  5392   0.493E+00    0.492E-01
DAV:   7    -0.258765083310E+02    0.44666E-03   -0.15345E-02  4636   0.130E+00    0.235E-01
DAV:   8    -0.258760268914E+02    0.48144E-03   -0.24547E-03  5820   0.435E-01    0.833E-02
DAV:   9    -0.258760091290E+02    0.17762E-04   -0.43950E-04  4964   0.251E-01    0.332E-02
DAV:  10    -0.258760005720E+02    0.85571E-05   -0.40956E-05  5140   0.709E-02    0.175E-02
DAV:  11    -0.258759984003E+02    0.21717E-05   -0.86114E-06  5388   0.315E-02    0.886E-03
DAV:  12    -0.258759976710E+02    0.72929E-06   -0.45059E-06  5676   0.188E-02    0.477E-03
DAV:  13    -0.258759975694E+02    0.10158E-06   -0.70284E-07  4668   0.102E-02    0.422E-04
DAV:  14    -0.258759975800E+02   -0.10576E-07   -0.35265E-08  3924   0.181E-03    0.236E-04
DAV:  15    -0.258759975803E+02   -0.26193E-09   -0.15238E-09  2256   0.435E-04
   5 F= -.25875998E+02 E0= -.25876184E+02  d E =-.225850E+00  mag=     0.0000
       N       E                     dE             d eps       ncg     rms          rms(c)
DAV:   1    -0.262035284372E+02   -0.32753E+00   -0.38601E+01  4720   0.184E+02    0.124E+01
DAV:   2    -0.325854485641E+02   -0.63819E+01   -0.71011E+01  5208   0.756E+01    0.333E+01
DAV:   3    -0.285724474723E+02    0.40130E+01   -0.66990E+01  5136   0.527E+01    0.180E+01
DAV:   4    -0.260905259698E+02    0.24819E+01   -0.58576E+00  5808   0.379E+01    0.382E+00
DAV:   5    -0.259735039823E+02    0.11702E+00   -0.58138E-01  4792   0.722E+00    0.206E+00
DAV:   6    -0.259321887643E+02    0.41315E-01   -0.14811E-01  6392   0.386E+00    0.343E-01
DAV:   7    -0.259317664004E+02    0.42236E-03   -0.14201E-02  4640   0.115E+00    0.204E-01
DAV:   8    -0.259316360183E+02    0.13038E-03   -0.13764E-03  5096   0.551E-01    0.123E-01
DAV:   9    -0.259315638362E+02    0.72182E-04   -0.40478E-04  4888   0.250E-01    0.225E-02
DAV:  10    -0.259315618134E+02    0.20228E-05   -0.19086E-05  4792   0.370E-02    0.149E-02
DAV:  11    -0.259315604026E+02    0.14108E-05   -0.60875E-06  4952   0.279E-02    0.829E-03
DAV:  12    -0.259315604112E+02   -0.85729E-08   -0.86649E-07  4672   0.125E-02    0.313E-03
DAV:  13    -0.259315603389E+02    0.72294E-07   -0.33072E-07  5276   0.703E-03    0.701E-04
DAV:  14    -0.259315603660E+02   -0.27079E-07   -0.41135E-08  3928   0.195E-03    0.236E-04
DAV:  15    -0.259315603662E+02   -0.21282E-09   -0.27638E-09  2232   0.555E-04
   6 F= -.25931560E+02 E0= -.25931382E+02  d E =-.555628E-01  mag=     0.0000
       N       E                     dE             d eps       ncg     rms          rms(c)
DAV:   1    -0.259894212599E+02   -0.57861E-01   -0.95563E+00  4720   0.933E+01    0.624E+00
DAV:   2    -0.275916115066E+02   -0.16022E+01   -0.17983E+01  5080   0.377E+01    0.164E+01
DAV:   3    -0.265152023519E+02    0.10764E+01   -0.16249E+01  5160   0.310E+01    0.945E+00
DAV:   4    -0.259714120357E+02    0.54379E+00   -0.20925E+00  5328   0.227E+01    0.175E+00
DAV:   5    -0.259454692243E+02    0.25943E-01   -0.15072E-01  4728   0.378E+00    0.845E-01
DAV:   6    -0.259386666745E+02    0.68025E-02   -0.26705E-02  5968   0.147E+00    0.161E-01
DAV:   7    -0.259384615472E+02    0.20513E-03   -0.25207E-03  4584   0.589E-01    0.104E-01
DAV:   8    -0.259384095435E+02    0.52004E-04   -0.18423E-04  5256   0.148E-01    0.276E-02
DAV:   9    -0.259384039917E+02    0.55517E-05   -0.41245E-05  5240   0.654E-02    0.869E-03
DAV:  10    -0.259384033811E+02    0.61062E-06   -0.22671E-06  5072   0.166E-02    0.223E-03
DAV:  11    -0.259384034522E+02   -0.71119E-07   -0.27159E-07  5048   0.587E-03    0.854E-04
DAV:  12    -0.259384034300E+02    0.22274E-07   -0.47663E-08  4264   0.327E-03    0.206E-04
DAV:  13    -0.259384034320E+02   -0.20791E-08   -0.51644E-09  2280   0.974E-04
   7 F= -.25938403E+02 E0= -.25938259E+02  d E =-.624059E-01  mag=     0.0000
       N       E                     dE             d eps       ncg     rms          rms(c)
DAV:   1    -0.254152859501E+02    0.52312E+00   -0.47447E+01  5384   0.227E+02    0.114E+01
DAV:   2    -0.304628269715E+02   -0.50475E+01   -0.47727E+01  5216   0.690E+01    0.164E+01
DAV:   3    -0.260693524061E+02    0.43935E+01   -0.11336E+01  5128   0.531E+01    0.464E+00
DAV:   4    -0.261313943305E+02   -0.62042E-01   -0.26755E+00  5544   0.206E+01    0.466E+00
DAV:   5    -0.259781261255E+02    0.15327E+00   -0.82225E-01  5472   0.135E+01    0.143E+00
DAV:   6    -0.259635018645E+02    0.14624E-01   -0.14342E-01  5632   0.373E+00    0.537E-01
DAV:   7    -0.259640708664E+02   -0.56900E-03   -0.43098E-02  4832   0.237E+00    0.571E-01
DAV:   8    -0.259620779318E+02    0.19929E-02   -0.23551E-02  5336   0.158E+00    0.225E-01
DAV:   9    -0.259617883917E+02    0.28954E-03   -0.10960E-03  5528   0.358E-01    0.112E-01
DAV:  10    -0.259616950099E+02    0.93382E-04   -0.43546E-04  5720   0.197E-01    0.874E-03
DAV:  11    -0.259616966731E+02   -0.16631E-05   -0.32959E-05  5448   0.446E-02    0.143E-02
DAV:  12    -0.259616955144E+02    0.11586E-05   -0.69930E-06  4776   0.308E-02    0.343E-03
DAV:  13    -0.259616955970E+02   -0.82549E-07   -0.35905E-07  4664   0.673E-03    0.506E-03
DAV:  14    -0.259616954718E+02    0.12515E-06   -0.11288E-06  5664   0.108E-02    0.759E-04
DAV:  15    -0.259616954674E+02    0.44092E-08   -0.30662E-08  3864   0.143E-03
   8 F= -.25961695E+02 E0= -.25961634E+02  d E =-.232920E-01  mag=     0.0000
       N       E                     dE             d eps       ncg     rms          rms(c)
DAV:   1    -0.259616954624E+02    0.93860E-08   -0.66819E-09  2264   0.137E-03    0.140E-04
DAV:   2    -0.259616954645E+02   -0.20536E-08   -0.19846E-08  2248   0.171E-03
   9 F= -.25961695E+02 E0= -.25961634E+02  d E =-.232920E-01  mag=     0.0000
       N       E                     dE             d eps       ncg     rms          rms(c)
DAV:   1    -0.259383037303E+02    0.23392E-01   -0.83699E-01  4896   0.332E+01    0.133E+00
DAV:   2    -0.260367608396E+02   -0.98457E-01   -0.10079E+00  5144   0.896E+00    0.317E+00
DAV:   3    -0.259829247261E+02    0.53836E-01   -0.65518E-01  5296   0.824E+00    0.181E+00
DAV:   4    -0.259631349353E+02    0.19790E-01   -0.10541E-01  5304   0.535E+00    0.331E-01
DAV:   5    -0.259624862241E+02    0.64871E-03   -0.49340E-03  4896   0.752E-01    0.175E-01
DAV:   6    -0.259622947067E+02    0.19152E-03   -0.14082E-03  5376   0.424E-01    0.813E-02
DAV:   7    -0.259622221813E+02    0.72525E-04   -0.27052E-04  4760   0.196E-01    0.131E-02
DAV:   8    -0.259622220316E+02    0.14966E-06   -0.11458E-05  5144   0.255E-02    0.371E-03
DAV:   9    -0.259622218032E+02    0.22839E-06   -0.98079E-07  5000   0.135E-02    0.136E-03
DAV:  10    -0.259622218865E+02   -0.83255E-07   -0.11795E-07  5488   0.503E-03    0.347E-04
DAV:  11    -0.259622218928E+02   -0.62937E-08   -0.16753E-08  2548   0.166E-03
  10 F= -.25962222E+02 E0= -.25962190E+02  d E =-.526428E-03  mag=    -0.0000
       N       E                     dE             d eps       ncg     rms          rms(c)
DAV:   1    -0.259616981257E+02    0.52376E-03   -0.19071E-02  4896   0.502E+00    0.204E-01
DAV:   2    -0.259639240509E+02   -0.22259E-02   -0.21162E-02  5136   0.136E+00    0.439E-01
DAV:   3    -0.259626048332E+02    0.13192E-02   -0.13036E-02  5280   0.129E+00    0.243E-01
DAV:   4    -0.259622620500E+02    0.34278E-03   -0.22687E-03  5192   0.673E-01    0.519E-02
DAV:   5    -0.259622470273E+02    0.15023E-04   -0.94674E-05  4680   0.111E-01    0.268E-02
DAV:   6    -0.259622415762E+02    0.54511E-05   -0.33525E-05  5080   0.695E-02    0.130E-02
DAV:   7    -0.259622396731E+02    0.19031E-05   -0.61413E-06  4800   0.304E-02    0.229E-03
DAV:   8    -0.259622394337E+02    0.23940E-06   -0.53283E-07  4880   0.626E-03    0.706E-04
DAV:   9    -0.259622394207E+02    0.13068E-07   -0.53582E-08  3968   0.268E-03    0.329E-04
DAV:  10    -0.259622394115E+02    0.91368E-08   -0.39557E-09  2264   0.923E-04
  11 F= -.25962239E+02 E0= -.25962202E+02  d E =-.543947E-03  mag=     0.0000
       N       E                     dE             d eps       ncg     rms          rms(c)
DAV:   1    -0.259656986938E+02   -0.34593E-02   -0.11243E-01  4816   0.958E+00    0.847E-01
DAV:   2    -0.259901883628E+02   -0.24490E-01   -0.23673E-01  5120   0.466E+00    0.162E+00
DAV:   3    -0.259671394784E+02    0.23049E-01   -0.17586E-01  5104   0.454E+00    0.922E-01
DAV:   4    -0.259625449455E+02    0.45945E-02   -0.33863E-02  4920   0.254E+00    0.169E-01
DAV:   5    -0.259623652008E+02    0.17974E-03   -0.14043E-03  4776   0.422E-01    0.682E-02
DAV:   6    -0.259623241204E+02    0.41080E-04   -0.11965E-04  5720   0.118E-01    0.107E-02
DAV:   7    -0.259623227018E+02    0.14185E-05   -0.19569E-05  4600   0.508E-02    0.954E-03
DAV:   8    -0.259623218399E+02    0.86194E-06   -0.27919E-06  4736   0.190E-02    0.181E-03
DAV:   9    -0.259623216488E+02    0.19114E-06   -0.10204E-07  4960   0.487E-03    0.284E-04
DAV:  10    -0.259623216244E+02    0.24382E-07   -0.83831E-09  2296   0.918E-04    0.108E-04
DAV:  11    -0.259623216249E+02   -0.57662E-09   -0.14242E-09  2256   0.473E-04
  12 F= -.25962322E+02 E0= -.25962279E+02  d E =-.822134E-04  mag=    -0.0000
       N       E                     dE             d eps       ncg     rms          rms(c)
DAV:   1    -0.259624137466E+02   -0.92122E-04   -0.28629E-03  4816   0.153E+00    0.138E-01
DAV:   2    -0.259630950549E+02   -0.68131E-03   -0.66400E-03  5096   0.764E-01    0.277E-01
DAV:   3    -0.259624578472E+02    0.63721E-03   -0.51548E-03  5168   0.745E-01    0.154E-01
DAV:   4    -0.259623290556E+02    0.12879E-03   -0.90303E-04  4944   0.430E-01    0.273E-02
DAV:   5    -0.259623252869E+02    0.37687E-05   -0.40331E-05  4744   0.694E-02    0.122E-02
DAV:   6    -0.259623244133E+02    0.87364E-06   -0.40662E-06  5488   0.222E-02    0.210E-03
DAV:   7    -0.259623244903E+02   -0.77065E-07   -0.66931E-07  4632   0.966E-03    0.149E-03
DAV:   8    -0.259623245498E+02   -0.59434E-07   -0.45103E-08  3600   0.247E-03    0.282E-04
DAV:   9    -0.259623245775E+02   -0.27701E-07   -0.25524E-09  2224   0.845E-04    0.547E-05
DAV:  10    -0.259623245819E+02   -0.44201E-08   -0.79832E-10  2216   0.294E-04
  13 F= -.25962325E+02 E0= -.25962283E+02  d E =-.851704E-04  mag=    -0.0000
       N       E                     dE             d eps       ncg     rms          rms(c)
DAV:   1    -0.259629512522E+02   -0.62667E-03   -0.11464E-02  5160   0.136E+00    0.245E-01
DAV:   2    -0.259644165796E+02   -0.14653E-02   -0.16122E-02  5128   0.125E+00    0.462E-01
DAV:   3    -0.259627838026E+02    0.16328E-02   -0.13913E-02  5176   0.123E+00    0.262E-01
DAV:   4    -0.259624324945E+02    0.35131E-03   -0.30188E-03  4984   0.795E-01    0.865E-02
DAV:   5    -0.259623651139E+02    0.67381E-04   -0.27967E-04  5320   0.203E-01    0.230E-02
DAV:   6    -0.259623611569E+02    0.39570E-05   -0.23043E-05  4904   0.454E-02    0.620E-03
DAV:   7    -0.259623610585E+02    0.98467E-07   -0.19501E-06  4832   0.161E-02    0.168E-03
DAV:   8    -0.259623611690E+02   -0.11052E-06   -0.18846E-07  4616   0.379E-03    0.522E-04
DAV:   9    -0.259623612020E+02   -0.33015E-07   -0.14371E-08  2592   0.131E-03    0.250E-04
DAV:  10    -0.259623612046E+02   -0.25811E-08   -0.57361E-09  2208   0.885E-04
  14 F= -.25962361E+02 E0= -.25962309E+02  d E =-.366227E-04  mag=     0.0000
       N       E                     dE             d eps       ncg     rms          rms(c)
DAV:   1    -0.259644477677E+02   -0.20866E-02   -0.40263E-02  5136   0.255E+00    0.459E-01
DAV:   2    -0.259696245241E+02   -0.51768E-02   -0.57670E-02  5128   0.234E+00    0.867E-01
DAV:   3    -0.259638639886E+02    0.57605E-02   -0.49477E-02  5152   0.228E+00    0.491E-01
DAV:   4    -0.259626268589E+02    0.12371E-02   -0.10539E-02  4976   0.151E+00    0.162E-01
DAV:   5    -0.259623910084E+02    0.23585E-03   -0.99398E-04  5312   0.383E-01    0.444E-02
DAV:   6    -0.259623760725E+02    0.14936E-04   -0.83679E-05  4912   0.870E-02    0.118E-02
DAV:   7    -0.259623754495E+02    0.62301E-06   -0.70919E-06  4832   0.307E-02    0.318E-03
DAV:   8    -0.259623756812E+02   -0.23172E-06   -0.67699E-07  4720   0.718E-03    0.972E-04
DAV:   9    -0.259623757435E+02   -0.62337E-07   -0.57714E-08  4200   0.245E-03    0.467E-04
DAV:  10    -0.259623757462E+02   -0.26757E-08   -0.14277E-08  2504   0.136E-03
  15 F= -.25962376E+02 E0= -.25962305E+02  d E =-.511643E-04  mag=    -0.0000
       N       E                     dE             d eps       ncg     rms          rms(c)
DAV:   1    -0.259649355396E+02   -0.25598E-02   -0.41520E-02  4768   0.521E+00    0.612E-01
DAV:   2    -0.259779361794E+02   -0.13001E-01   -0.12285E-01  5128   0.347E+00    0.125E+00
DAV:   3    -0.259651189846E+02    0.12817E-01   -0.10083E-01  5128   0.351E+00    0.681E-01
DAV:   4    -0.259624791168E+02    0.26399E-02   -0.18606E-02  4912   0.190E+00    0.111E-01
DAV:   5    -0.259624409340E+02    0.38183E-04   -0.86501E-04  4640   0.309E-01    0.622E-02
DAV:   6    -0.259624095121E+02    0.31422E-04   -0.12935E-04  5168   0.121E-01    0.193E-02
DAV:   7    -0.259624055084E+02    0.40037E-05   -0.14260E-05  4704   0.452E-02    0.351E-03
DAV:   8    -0.259624050344E+02    0.47403E-06   -0.95127E-07  5288   0.856E-03    0.731E-04
DAV:   9    -0.259624049795E+02    0.54848E-07   -0.61134E-08  4128   0.226E-03    0.224E-04
DAV:  10    -0.259624049433E+02    0.36196E-07   -0.32193E-09  2280   0.600E-04    0.106E-04
DAV:  11    -0.259624049421E+02    0.12424E-08   -0.94998E-10  2224   0.352E-04
  16 F= -.25962405E+02 E0= -.25962325E+02  d E =-.291959E-04  mag=     0.0000
       N       E                     dE             d eps       ncg     rms          rms(c)
DAV:   1    -0.259625548624E+02   -0.14992E-03   -0.23818E-03  4768   0.125E+00    0.148E-01
DAV:   2    -0.259633329723E+02   -0.77811E-03   -0.74733E-03  5136   0.844E-01    0.313E-01
DAV:   3    -0.259625680501E+02    0.76492E-03   -0.63146E-03  5184   0.836E-01    0.167E-01
DAV:   4    -0.259624113735E+02    0.15668E-03   -0.10702E-03  4936   0.470E-01    0.270E-02
DAV:   5    -0.259624092669E+02    0.21066E-05   -0.49730E-05  4616   0.735E-02    0.151E-02
DAV:   6    -0.259624080061E+02    0.12608E-05   -0.77586E-06  5168   0.296E-02    0.480E-03
DAV:   7    -0.259624078500E+02    0.15618E-06   -0.85423E-07  4624   0.112E-02    0.868E-04
DAV:   8    -0.259624079267E+02   -0.76734E-07   -0.58230E-08  4432   0.217E-03    0.176E-04
DAV:   9    -0.259624079383E+02   -0.11569E-07   -0.34399E-09  2264   0.526E-04    0.589E-05
DAV:  10    -0.259624079467E+02   -0.84237E-08   -0.48887E-10  2184   0.232E-04
  17 F= -.25962408E+02 E0= -.25962330E+02  d E =-.322005E-04  mag=    -0.0000
       N       E                     dE             d eps       ncg     rms          rms(c)
DAV:   1    -0.259619697105E+02    0.43823E-03   -0.12258E-02  4944   0.402E+00    0.127E-01
DAV:   2    -0.259630285977E+02   -0.10589E-02   -0.10574E-02  5032   0.854E-01    0.246E-01
DAV:   3    -0.259625615202E+02    0.46708E-03   -0.47048E-03  5704   0.732E-01    0.152E-01
DAV:   4    -0.259624402929E+02    0.12123E-03   -0.85487E-04  5032   0.421E-01    0.400E-02
DAV:   5    -0.259624275596E+02    0.12733E-04   -0.48903E-05  4912   0.836E-02    0.156E-02
DAV:   6    -0.259624255002E+02    0.20594E-05   -0.52416E-06  5448   0.281E-02    0.402E-03
DAV:   7    -0.259624256179E+02   -0.11772E-06   -0.10569E-06  5304   0.112E-02    0.211E-03
DAV:   8    -0.259624256047E+02    0.13189E-07   -0.23892E-07  4672   0.581E-03    0.542E-04
DAV:   9    -0.259624256280E+02   -0.23230E-07   -0.11068E-08  2264   0.140E-03    0.132E-04
DAV:  10    -0.259624256344E+02   -0.64847E-08   -0.18471E-09  2192   0.412E-04
  18 F= -.25962426E+02 E0= -.25962342E+02  d E =-.176878E-04  mag=    -0.0000
       N       E                     dE             d eps       ncg     rms          rms(c)
DAV:   1    -0.259621949451E+02    0.23068E-03   -0.63282E-03  4944   0.289E+00    0.916E-02
DAV:   2    -0.259627398076E+02   -0.54486E-03   -0.54454E-03  5032   0.613E-01    0.176E-01
DAV:   3    -0.259625000012E+02    0.23981E-03   -0.24171E-03  5704   0.526E-01    0.109E-01
DAV:   4    -0.259624375512E+02    0.62450E-04   -0.44146E-04  5032   0.302E-01    0.287E-02
DAV:   5    -0.259624310220E+02    0.65292E-05   -0.25161E-05  4912   0.600E-02    0.112E-02
DAV:   6    -0.259624300423E+02    0.97968E-06   -0.27108E-06  5464   0.202E-02    0.288E-03
DAV:   7    -0.259624301478E+02   -0.10553E-06   -0.54697E-07  5304   0.802E-03    0.152E-03
DAV:   8    -0.259624301429E+02    0.49276E-08   -0.12366E-07  4584   0.417E-03    0.389E-04
DAV:   9    -0.259624301592E+02   -0.16276E-07   -0.56966E-09  2216   0.100E-03    0.955E-05
DAV:  10    -0.259624301634E+02   -0.42164E-08   -0.96357E-10  2192   0.298E-04
  19 F= -.25962430E+02 E0= -.25962343E+02  d E =-.222167E-04  mag=    -0.0000
       N       E                     dE             d eps       ncg     rms          rms(c)
DAV:   1    -0.259624462883E+02   -0.16129E-04   -0.55279E-04  4960   0.478E-01    0.440E-02
DAV:   2    -0.259624883837E+02   -0.42095E-04   -0.50678E-04  5120   0.224E-01    0.750E-02
DAV:   3    -0.259624483507E+02    0.40033E-04   -0.38407E-04  5168   0.209E-01    0.452E-02
DAV:   4    -0.259624389584E+02    0.93923E-05   -0.10140E-04  5056   0.145E-01    0.206E-02
DAV:   5    -0.259624349577E+02    0.40007E-05   -0.13091E-05  5792   0.480E-02    0.275E-03
DAV:   6    -0.259624349287E+02    0.28967E-07   -0.79892E-07  4584   0.791E-03    0.716E-04
DAV:   7    -0.259624349578E+02   -0.29104E-07   -0.28920E-08  3864   0.204E-03    0.309E-04
DAV:   8    -0.259624349753E+02   -0.17510E-07   -0.42783E-09  2208   0.569E-04    0.980E-05
DAV:   9    -0.259624349775E+02   -0.22010E-08   -0.10848E-09  2200   0.411E-04
  20 F= -.25962435E+02 E0= -.25962345E+02  d E =-.481414E-05  mag=    -0.0000
       N       E                     dE             d eps       ncg     rms          rms(c)
DAV:   1    -0.259625408401E+02   -0.10586E-03   -0.49720E-03  4952   0.143E+00    0.132E-01
DAV:   2    -0.259629248356E+02   -0.38400E-03   -0.45702E-03  5120   0.673E-01    0.225E-01
DAV:   3    -0.259625611312E+02    0.36370E-03   -0.34638E-03  5160   0.623E-01    0.135E-01
DAV:   4    -0.259624767940E+02    0.84337E-04   -0.90607E-04  5056   0.436E-01    0.620E-02
DAV:   5    -0.259624408285E+02    0.35965E-04   -0.11830E-04  5784   0.144E-01    0.824E-03
DAV:   6    -0.259624405224E+02    0.30619E-06   -0.71849E-06  4584   0.237E-02    0.215E-03
DAV:   7    -0.259624405994E+02   -0.77029E-07   -0.27082E-07  5152   0.611E-03    0.932E-04
DAV:   8    -0.259624406573E+02   -0.57946E-07   -0.31364E-08  3776   0.147E-03    0.280E-04
DAV:   9    -0.259624406650E+02   -0.77198E-08   -0.36828E-09  2200   0.865E-04
  21 F= -.25962441E+02 E0= -.25962343E+02  d E =-.105016E-04  mag=     0.0000
       N       E                     dE             d eps       ncg     rms          rms(c)
DAV:   1    -0.259624817308E+02   -0.41074E-04   -0.70830E-04  4656   0.573E-01    0.741E-02
DAV:   2    -0.259626557214E+02   -0.17399E-03   -0.16936E-03  5120   0.412E-01    0.147E-01
DAV:   3    -0.259624813221E+02    0.17440E-03   -0.13831E-03  5160   0.393E-01    0.798E-02
DAV:   4    -0.259624464834E+02    0.34839E-04   -0.26273E-04  4976   0.230E-01    0.178E-02
DAV:   5    -0.259624440705E+02    0.24129E-05   -0.14094E-05  4768   0.451E-02    0.748E-03
DAV:   6    -0.259624434583E+02    0.61217E-06   -0.17658E-06  5360   0.124E-02    0.968E-04
DAV:   7    -0.259624434075E+02    0.50817E-07   -0.95392E-08  4472   0.387E-03    0.715E-04
DAV:   8    -0.259624433481E+02    0.59363E-07   -0.10897E-08  2304   0.108E-03    0.114E-04
DAV:   9    -0.259624433462E+02    0.19445E-08   -0.18032E-09  2168   0.512E-04
  22 F= -.25962443E+02 E0= -.25962343E+02  d E =-.268112E-05  mag=     0.0000
       N       E                     dE             d eps       ncg     rms          rms(c)
DAV:   1    -0.259624633146E+02   -0.19967E-04   -0.34888E-04  4656   0.402E-01    0.520E-02
DAV:   2    -0.259625494113E+02   -0.86097E-04   -0.83491E-04  5112   0.289E-01    0.103E-01
DAV:   3    -0.259624632457E+02    0.86166E-04   -0.68050E-04  5160   0.275E-01    0.559E-02
DAV:   4    -0.259624460915E+02    0.17154E-04   -0.12917E-04  4976   0.161E-01    0.125E-02
DAV:   5    -0.259624448627E+02    0.12287E-05   -0.69318E-06  4776   0.316E-02    0.525E-03
DAV:   6    -0.259624445355E+02    0.32721E-06   -0.86923E-07  5376   0.866E-03    0.679E-04
DAV:   7    -0.259624445007E+02    0.34850E-07   -0.46721E-08  3904   0.272E-03    0.501E-04
DAV:   8    -0.259624444604E+02    0.40242E-07   -0.55705E-09  2240   0.781E-04    0.785E-05
DAV:   9    -0.259624444583E+02    0.21228E-08   -0.91791E-10  2184   0.367E-04
  23 F= -.25962444E+02 E0= -.25962343E+02  d E =-.379328E-05  mag=    -0.0000
