 running on   24 total cores
 distrk:  each k-point on   24 cores,    1 groups
 distr:  one band on    6 cores,    4 groups
 using from now: INCAR     
 vasp.5.4.4.18Apr17-6-g9f103f2a35 (build Jan 03 2018 06:08:52) complex          
  
 POSCAR found :  2 types and       8 ions
 scaLAPACK will be used
 WARNING: for PREC=h ENMAX is automatically increase by 25 %
        this was not the case for versions prior to vasp.4.4
 WARNING: for PREC=h ENMAX is automatically increase by 25 %
        this was not the case for versions prior to vasp.4.4
 LDA part: xc-table for Pade appr. of Perdew
 POSCAR, INCAR and KPOINTS ok, starting setup
 FFT: planning ...
 WAVECAR not read
 entering main loop
       N       E                     dE             d eps       ncg     rms          rms(c)
DAV:   1     0.868651155696E+03    0.86865E+03   -0.43820E+04  6888   0.163E+03
DAV:   2     0.145979858936E+02   -0.85405E+03   -0.81669E+03  5684   0.523E+02
DAV:   3    -0.444042337308E+02   -0.59002E+02   -0.54605E+02  6592   0.153E+02
DAV:   4    -0.464625025599E+02   -0.20583E+01   -0.20447E+01  6372   0.268E+01
DAV:   5    -0.465158859674E+02   -0.53383E-01   -0.53369E-01  6568   0.441E+00    0.293E+01
DAV:   6    -0.630605970757E+02   -0.16545E+02   -0.14088E+02  6364   0.138E+02    0.400E+01
DAV:   7    -0.400916497457E+02    0.22969E+02   -0.56277E+01  6364   0.892E+01    0.583E+00
DAV:   8    -0.400789913057E+02    0.12658E-01   -0.44421E+00  7508   0.156E+01    0.385E+00
DAV:   9    -0.400710983123E+02    0.78930E-02   -0.71994E-01  7232   0.160E+01    0.410E+00
DAV:  10    -0.399487573155E+02    0.12234E+00   -0.51050E-01  6624   0.937E+00    0.110E+00
DAV:  11    -0.399540778062E+02   -0.53205E-02   -0.40832E-02  6088   0.137E+00    0.644E-01
DAV:  12    -0.399496679962E+02    0.44098E-02   -0.24459E-02  6940   0.157E+00    0.302E-01
DAV:  13    -0.399490599116E+02    0.60808E-03   -0.20821E-03  6760   0.416E-01    0.115E-01
DAV:  14    -0.399489271079E+02    0.13280E-03   -0.34081E-04  7872   0.160E-01    0.168E-02
DAV:  15    -0.399489235402E+02    0.35677E-05   -0.26062E-05  6732   0.335E-02    0.647E-03
DAV:  16    -0.399489231026E+02    0.43757E-06   -0.30097E-06  6552   0.127E-02    0.354E-03
DAV:  17    -0.399489230959E+02    0.67066E-08   -0.89582E-07  6636   0.918E-03    0.263E-03
DAV:  18    -0.399489227600E+02    0.33593E-06   -0.11182E-07  6584   0.322E-03    0.881E-04
DAV:  19    -0.399489226465E+02    0.11350E-06   -0.39323E-08  5260   0.172E-03    0.260E-04
DAV:  20    -0.399489226543E+02   -0.77835E-08   -0.41906E-09  3176   0.584E-04
   1 F= -.39948923E+02 E0= -.39949673E+02  d E =-.399489E+02  mag=    -0.0000
 curvature:   0.00 expect dE= 0.000E+00 dE for cont linesearch  0.000E+00
 trial: gam= 0.00000 g(F)=  0.218E+00 g(S)=  0.398E+01 ort = 0.000E+00 (trialstep = 0.100E+01)
 search vector abs. value=  0.420E+01
 bond charge predicted
       N       E                     dE             d eps       ncg     rms          rms(c)
DAV:   1    -0.205737679996E+03   -0.16579E+03   -0.21418E+03  5648   0.572E+02    0.981E+01
DAV:   2    -0.955175580525E+02    0.11022E+03   -0.10285E+03  6520   0.250E+02    0.647E+01
DAV:   3    -0.677892721564E+02    0.27728E+02   -0.33316E+02  6424   0.177E+02    0.458E+01
DAV:   4    -0.422633339646E+02    0.25526E+02   -0.80595E+01  6616   0.932E+01    0.993E+00
DAV:   5    -0.416979429394E+02    0.56539E+00   -0.55921E+00  7472   0.288E+01    0.872E+00
DAV:   6    -0.409744865800E+02    0.72346E+00   -0.27066E+00  6632   0.206E+01    0.620E+00
DAV:   7    -0.404552627275E+02    0.51922E+00   -0.75322E-01  7360   0.699E+00    0.218E+00
DAV:   8    -0.404145495955E+02    0.40713E-01   -0.17833E-01  6912   0.485E+00    0.295E-01
DAV:   9    -0.404155220979E+02   -0.97250E-03   -0.16827E-02  6800   0.101E+00    0.122E-01
DAV:  10    -0.404156004318E+02   -0.78334E-04   -0.14265E-03  6352   0.335E-01    0.746E-02
DAV:  11    -0.404156096426E+02   -0.92108E-05   -0.67499E-04  6560   0.272E-01    0.810E-02
DAV:  12    -0.404155613096E+02    0.48333E-04   -0.18555E-04  6328   0.161E-01    0.158E-02
DAV:  13    -0.404155611573E+02    0.15227E-06   -0.11670E-05  6396   0.397E-02    0.988E-03
DAV:  14    -0.404155601043E+02    0.10530E-05   -0.38699E-06  6400   0.189E-02    0.274E-03
DAV:  15    -0.404155600542E+02    0.50095E-07   -0.37277E-07  6576   0.715E-03    0.809E-04
DAV:  16    -0.404155599702E+02    0.83974E-07   -0.35185E-08  5012   0.193E-03    0.247E-04
DAV:  17    -0.404155599707E+02   -0.46748E-09   -0.56849E-09  3116   0.652E-04
   2 F= -.40415560E+02 E0= -.40416297E+02  d E =-.466637E+00  mag=    -0.0000
 trial-energy change:   -0.466637  1 .order   -0.695843   -4.203238    2.811551
 step:   0.5507(harm=  0.5992)  dis= 0.02383  next Energy=   -41.067982 (dE=-0.112E+01)
 bond charge predicted
       N       E                     dE             d eps       ncg     rms          rms(c)
DAV:   1    -0.967375353127E+02   -0.56322E+02   -0.46304E+02  6168   0.226E+02    0.787E+01
DAV:   2    -0.164342755843E+03   -0.67605E+02   -0.93180E+02  5968   0.341E+02    0.704E+01
DAV:   3    -0.505062122809E+02    0.11384E+03   -0.32489E+02  6336   0.156E+02    0.217E+01
DAV:   4    -0.504221151922E+02    0.84097E-01   -0.44748E+00  5928   0.134E+01    0.213E+01
DAV:   5    -0.482990626721E+02    0.21231E+01   -0.63763E-01  6768   0.118E+01    0.184E+01
DAV:   6    -0.458600097870E+02    0.24391E+01   -0.14265E+00  6464   0.170E+01    0.140E+01
DAV:   7    -0.438593391314E+02    0.20007E+01   -0.26161E+01  6952   0.539E+01    0.185E+01
DAV:   8    -0.429230148192E+02    0.93632E+00   -0.22468E+00  6344   0.139E+01    0.135E+01
DAV:   9    -0.416488097398E+02    0.12742E+01   -0.15996E+00  6632   0.112E+01    0.656E+00
DAV:  10    -0.416755210497E+02   -0.26711E-01   -0.15813E-01  6744   0.372E+00    0.765E+00
DAV:  11    -0.413747251178E+02    0.30080E+00   -0.16283E-01  6408   0.364E+00    0.558E+00
DAV:  12    -0.410893427764E+02    0.28538E+00   -0.37142E-01  6344   0.461E+00    0.261E+00
DAV:  13    -0.410476131239E+02    0.41730E-01   -0.47398E-02  6560   0.172E+00    0.165E+00
DAV:  14    -0.410198491501E+02    0.27764E-01   -0.65259E-02  6336   0.208E+00    0.323E-01
DAV:  15    -0.410194192429E+02    0.42991E-03   -0.51173E-03  7040   0.609E-01    0.671E-02
DAV:  16    -0.410194708605E+02   -0.51618E-04   -0.55886E-04  6472   0.185E-01    0.472E-02
DAV:  17    -0.410194793399E+02   -0.84794E-05   -0.98782E-05  7416   0.837E-02    0.523E-02
DAV:  18    -0.410194587396E+02    0.20600E-04   -0.10825E-04  6600   0.133E-01    0.168E-02
DAV:  19    -0.410194562615E+02    0.24781E-05   -0.10788E-05  6192   0.346E-02    0.851E-03
DAV:  20    -0.410194562368E+02    0.24709E-07   -0.36363E-06  6472   0.175E-02    0.454E-03
DAV:  21    -0.410194559647E+02    0.27208E-06   -0.78361E-07  6848   0.834E-03    0.230E-03
DAV:  22    -0.410194561361E+02   -0.17142E-06   -0.37143E-07  6336   0.423E-03    0.591E-04
DAV:  23    -0.410194561585E+02   -0.22314E-07   -0.34547E-08  5408   0.182E-03    0.913E-05
DAV:  24    -0.410194561831E+02   -0.24691E-07   -0.35101E-09  3080   0.528E-04    0.112E-04
DAV:  25    -0.410194561784E+02    0.47748E-08   -0.11937E-09  3008   0.371E-04
   3 F= -.41019456E+02 E0= -.41020363E+02  d E =-.107053E+01  mag=    -0.0000
 curvature:  -0.30 expect dE=-0.177E-01 dE for cont linesearch -0.126E-03
 ZBRENT: interpolating
 opt :   0.5452  next Energy=   -41.019573 (dE=-0.107E+01)
 bond charge predicted
       N       E                     dE             d eps       ncg     rms          rms(c)
DAV:   1    -0.410283283690E+02   -0.88722E-02   -0.68355E-02  5944   0.294E+00    0.103E+00
DAV:   2    -0.410571348631E+02   -0.28806E-01   -0.22129E-01  6368   0.459E+00    0.190E+00
DAV:   3    -0.410195973466E+02    0.37538E-01   -0.10574E-01  6328   0.328E+00    0.122E-01
DAV:   4    -0.410198319149E+02   -0.23457E-03   -0.26982E-03  7416   0.560E-01    0.195E-01
DAV:   5    -0.410195900224E+02    0.24189E-03   -0.71562E-04  6688   0.446E-01    0.559E-02
DAV:   6    -0.410195702357E+02    0.19787E-04   -0.10259E-04  6472   0.869E-02    0.872E-03
DAV:   7    -0.410195692027E+02    0.10330E-05   -0.59513E-06  6144   0.233E-02    0.378E-03
DAV:   8    -0.410195690285E+02    0.17416E-06   -0.97077E-07  6352   0.125E-02    0.660E-04
DAV:   9    -0.410195688837E+02    0.14481E-06   -0.47690E-08  5256   0.212E-03    0.572E-04
DAV:  10    -0.410195687867E+02    0.97003E-07   -0.60978E-09  3112   0.937E-04    0.147E-04
DAV:  11    -0.410195687460E+02    0.40724E-07   -0.22889E-09  3040   0.399E-04    0.615E-05
DAV:  12    -0.410195687433E+02    0.26812E-08   -0.47841E-10  3020   0.195E-04
   4 F= -.41019569E+02 E0= -.41020472E+02  d E =-.107065E+01  mag=    -0.0000
 curvature:  -0.27 expect dE=-0.159E-01 dE for cont linesearch -0.252E-05
 trial: gam= 0.01535 g(F)=  0.429E-01 g(S)=  0.154E-01 ort =-0.624E-02 (trialstep = 0.909E+00)
 search vector abs. value=  0.591E-01
 bond charge predicted
       N       E                     dE             d eps       ncg     rms          rms(c)
DAV:   1    -0.407041267755E+02    0.31544E+00   -0.13393E+01  8704   0.974E+01    0.378E+00
DAV:   2    -0.413939783367E+02   -0.68985E+00   -0.66632E+00  6672   0.199E+01    0.572E+00
DAV:   3    -0.410693959511E+02    0.32458E+00   -0.12243E+00  6368   0.115E+01    0.112E+00
DAV:   4    -0.410683929556E+02    0.10030E-02   -0.86388E-02  8120   0.385E+00    0.134E+00
DAV:   5    -0.410569694799E+02    0.11423E-01   -0.49317E-02  6768   0.392E+00    0.505E-01
DAV:   6    -0.410548039134E+02    0.21656E-02   -0.81141E-03  7272   0.107E+00    0.715E-02
DAV:   7    -0.410548241390E+02   -0.20226E-04   -0.93613E-04  5960   0.265E-01    0.337E-02
DAV:   8    -0.410548261753E+02   -0.20363E-05   -0.71413E-05  6040   0.103E-01    0.134E-02
DAV:   9    -0.410548266296E+02   -0.45431E-06   -0.71236E-06  6872   0.355E-02    0.731E-03
DAV:  10    -0.410548261134E+02    0.51616E-06   -0.10874E-06  7288   0.163E-02    0.115E-03
DAV:  11    -0.410548260031E+02    0.11028E-06   -0.12333E-07  5696   0.286E-03    0.257E-04
DAV:  12    -0.410548259832E+02    0.19912E-07   -0.75597E-09  3116   0.107E-03    0.113E-04
DAV:  13    -0.410548259715E+02    0.11762E-07   -0.21419E-09  3064   0.419E-04    0.410E-05
DAV:  14    -0.410548259726E+02   -0.11296E-08   -0.47129E-10  3028   0.190E-04
   5 F= -.41054826E+02 E0= -.41055609E+02  d E =-.352572E-01  mag=    -0.0000
 trial-energy change:   -0.035257  1 .order   -0.034989   -0.052883   -0.017095
 step:   1.3167(harm=  1.3433)  dis= 0.02376  next Energy=   -41.058683 (dE=-0.391E-01)
 bond charge predicted
       N       E                     dE             d eps       ncg     rms          rms(c)
DAV:   1    -0.409825369445E+02    0.72289E-01   -0.26343E+00  8672   0.437E+01    0.162E+00
DAV:   2    -0.411151249642E+02   -0.13259E+00   -0.13315E+00  6696   0.862E+00    0.237E+00
DAV:   3    -0.410624331195E+02    0.52692E-01   -0.22415E-01  6392   0.504E+00    0.601E-01
DAV:   4    -0.410634020508E+02   -0.96893E-03   -0.26699E-02  7328   0.242E+00    0.786E-01
DAV:   5    -0.410588694190E+02    0.45326E-02   -0.11723E-02  6592   0.218E+00    0.173E-01
DAV:   6    -0.410586026939E+02    0.26673E-03   -0.18877E-03  6416   0.360E-01    0.433E-02
DAV:   7    -0.410585958761E+02    0.68178E-05   -0.18345E-04  6744   0.134E-01    0.194E-02
DAV:   8    -0.410585956627E+02    0.21336E-06   -0.23052E-05  6280   0.564E-02    0.779E-03
DAV:   9    -0.410585953474E+02    0.31529E-06   -0.22115E-06  6792   0.199E-02    0.192E-03
DAV:  10    -0.410585952313E+02    0.11612E-06   -0.19794E-07  6184   0.498E-03    0.576E-04
DAV:  11    -0.410585951946E+02    0.36645E-07   -0.20828E-08  3704   0.117E-03    0.214E-04
DAV:  12    -0.410585951844E+02    0.10203E-07   -0.32409E-09  3104   0.541E-04    0.824E-05
DAV:  13    -0.410585951825E+02    0.19645E-08   -0.82883E-10  3028   0.216E-04
   6 F= -.41058595E+02 E0= -.41059223E+02  d E =-.390264E-01  mag=    -0.0000
 curvature:  -0.68 expect dE=-0.106E-01 dE for cont linesearch -0.138E-05
 trial: gam= 0.28181 g(F)=  0.119E-01 g(S)=  0.373E-02 ort =-0.347E-03 (trialstep = 0.991E+00)
 search vector abs. value=  0.201E-01
 bond charge predicted
       N       E                     dE             d eps       ncg     rms          rms(c)
DAV:   1    -0.406862883336E+02    0.37231E+00   -0.95903E+00  8160   0.865E+01    0.153E+00
DAV:   2    -0.411038360596E+02   -0.41755E+00   -0.41791E+00  5904   0.126E+01    0.202E+00
DAV:   3    -0.410780789833E+02    0.25757E-01   -0.29467E-01  7432   0.616E+00    0.106E+00
DAV:   4    -0.410733622059E+02    0.47168E-02   -0.42043E-02  6420   0.359E+00    0.602E-01
DAV:   5    -0.410710431636E+02    0.23190E-02   -0.47792E-03  6880   0.101E+00    0.321E-01
DAV:   6    -0.410699990833E+02    0.10441E-02   -0.30269E-03  6400   0.663E-01    0.935E-02
DAV:   7    -0.410699722046E+02    0.26879E-04   -0.63089E-04  7292   0.251E-01    0.406E-02
DAV:   8    -0.410699664256E+02    0.57790E-05   -0.57888E-05  6736   0.832E-02    0.103E-02
DAV:   9    -0.410699666941E+02   -0.26849E-06   -0.56161E-06  6068   0.293E-02    0.317E-03
DAV:  10    -0.410699668188E+02   -0.12475E-06   -0.45281E-07  7360   0.699E-03    0.169E-03
DAV:  11    -0.410699668557E+02   -0.36907E-07   -0.10804E-07  6520   0.296E-03    0.180E-04
DAV:  12    -0.410699668539E+02    0.18572E-08   -0.42423E-09  3096   0.563E-04
   7 F= -.41069967E+02 E0= -.41070227E+02  d E =-.113717E-01  mag=    -0.0000
 trial-energy change:   -0.011372  1 .order   -0.011429   -0.015374   -0.007484
 step:   2.0227(harm=  1.9302)  dis= 0.03039  next Energy=   -41.073801 (dE=-0.152E-01)
 bond charge predicted
       N       E                     dE             d eps       ncg     rms          rms(c)
DAV:   1    -0.406560439909E+02    0.41392E+00   -0.10387E+01  8272   0.893E+01    0.162E+00
DAV:   2    -0.411151095760E+02   -0.45907E+00   -0.45666E+00  5904   0.130E+01    0.225E+00
DAV:   3    -0.410839956276E+02    0.31114E-01   -0.34267E-01  7416   0.676E+00    0.121E+00
DAV:   4    -0.410774650217E+02    0.65306E-02   -0.51550E-02  6376   0.395E+00    0.624E-01
DAV:   5    -0.410749712258E+02    0.24938E-02   -0.52543E-03  6872   0.102E+00    0.335E-01
DAV:   6    -0.410738575216E+02    0.11137E-02   -0.30929E-03  6504   0.673E-01    0.976E-02
DAV:   7    -0.410738324039E+02    0.25118E-04   -0.68784E-04  7280   0.257E-01    0.460E-02
DAV:   8    -0.410738240817E+02    0.83222E-05   -0.76575E-05  6360   0.924E-02    0.113E-02
DAV:   9    -0.410738241115E+02   -0.29777E-07   -0.78241E-06  5928   0.338E-02    0.392E-03
DAV:  10    -0.410738242092E+02   -0.97662E-07   -0.49687E-07  7448   0.773E-03    0.205E-03
DAV:  11    -0.410738242405E+02   -0.31301E-07   -0.14837E-07  6496   0.362E-03    0.192E-04
DAV:  12    -0.410738242422E+02   -0.16862E-08   -0.53565E-09  3104   0.693E-04
   8 F= -.41073824E+02 E0= -.41073730E+02  d E =-.152291E-01  mag=    -0.0000
 curvature:  -1.24 expect dE=-0.174E-02 dE for cont linesearch -0.433E-06
 trial: gam= 0.11408 g(F)=  0.559E-03 g(S)=  0.842E-03 ort = 0.838E-04 (trialstep = 0.120E+01)
 search vector abs. value=  0.168E-02
 bond charge predicted
       N       E                     dE             d eps       ncg     rms          rms(c)
DAV:   1    -0.410836524644E+02   -0.98282E-02   -0.45562E-01  6528   0.141E+01    0.150E+00
DAV:   2    -0.411371249936E+02   -0.53473E-01   -0.46077E-01  6384   0.674E+00    0.245E+00
DAV:   3    -0.410767135764E+02    0.60411E-01   -0.18644E-01  6336   0.445E+00    0.408E-01
DAV:   4    -0.410767225460E+02   -0.89696E-05   -0.10738E-02  8088   0.136E+00    0.531E-01
DAV:   5    -0.410749402990E+02    0.17822E-02   -0.76883E-03  6672   0.149E+00    0.119E-01
DAV:   6    -0.410748517456E+02    0.88553E-04   -0.63670E-04  6552   0.282E-01    0.210E-02
DAV:   7    -0.410748523411E+02   -0.59546E-06   -0.59165E-05  6136   0.606E-02    0.921E-03
DAV:   8    -0.410748528505E+02   -0.50945E-06   -0.31253E-06  6648   0.148E-02    0.269E-03
DAV:   9    -0.410748527251E+02    0.12545E-06   -0.36834E-07  7328   0.550E-03    0.116E-03
DAV:  10    -0.410748526049E+02    0.12015E-06   -0.48489E-08  5480   0.196E-03    0.347E-04
DAV:  11    -0.410748525784E+02    0.26526E-07   -0.49136E-09  3096   0.764E-04    0.101E-04
DAV:  12    -0.410748525696E+02    0.87875E-08   -0.14574E-09  3040   0.433E-04
   9 F= -.41074853E+02 E0= -.41074741E+02  d E =-.102833E-02  mag=    -0.0000
 trial-energy change:   -0.001028  1 .order   -0.001027   -0.001689   -0.000366
 step:   1.5279(harm=  1.5279)  dis= 0.00354  next Energy=   -41.074902 (dE=-0.108E-02)
 bond charge predicted
       N       E                     dE             d eps       ncg     rms          rms(c)
DAV:   1    -0.410756011541E+02   -0.74858E-03   -0.35028E-02  6528   0.390E+00    0.423E-01
DAV:   2    -0.410799504336E+02   -0.43493E-02   -0.37108E-02  6376   0.189E+00    0.705E-01
DAV:   3    -0.410750467888E+02    0.49036E-02   -0.15021E-02  6328   0.125E+00    0.114E-01
DAV:   4    -0.410751256476E+02   -0.78859E-04   -0.10914E-03  8208   0.467E-01    0.182E-01
DAV:   5    -0.410749071480E+02    0.21850E-03   -0.76186E-04  6784   0.447E-01    0.269E-02
DAV:   6    -0.410749034112E+02    0.37368E-05   -0.56537E-05  6056   0.657E-02    0.613E-03
DAV:   7    -0.410749034450E+02   -0.33759E-07   -0.38725E-06  6352   0.155E-02    0.279E-03
DAV:   8    -0.410749035198E+02   -0.74855E-07   -0.26682E-07  6320   0.427E-03    0.808E-04
DAV:   9    -0.410749034975E+02    0.22330E-07   -0.31013E-08  4312   0.170E-03    0.328E-04
DAV:  10    -0.410749034670E+02    0.30470E-07   -0.62150E-09  3064   0.741E-04    0.109E-04
DAV:  11    -0.410749034613E+02    0.56680E-08   -0.11380E-09  3024   0.339E-04
  10 F= -.41074903E+02 E0= -.41074794E+02  d E =-.107922E-02  mag=     0.0000
 curvature:  -0.91 expect dE=-0.428E-03 dE for cont linesearch -0.565E-09
 trial: gam= 0.36174 g(F)=  0.215E-04 g(S)=  0.449E-03 ort = 0.102E-05 (trialstep = 0.126E+01)
 search vector abs. value=  0.691E-03
 bond charge predicted
       N       E                     dE             d eps       ncg     rms          rms(c)
DAV:   1    -0.411092298353E+02   -0.34326E-01   -0.33124E-01  6712   0.778E+00    0.207E+00
DAV:   2    -0.412260218918E+02   -0.11679E+00   -0.92878E-01  6384   0.931E+00    0.386E+00
DAV:   3    -0.410785276426E+02    0.14749E+00   -0.46178E-01  6360   0.719E+00    0.862E-01
DAV:   4    -0.410759356087E+02    0.25920E-02   -0.38646E-02  6504   0.295E+00    0.322E-01
DAV:   5    -0.410750856573E+02    0.84995E-03   -0.28355E-03  6832   0.626E-01    0.125E-01
DAV:   6    -0.410749715844E+02    0.11407E-03   -0.44051E-04  6456   0.191E-01    0.188E-02
DAV:   7    -0.410749710984E+02    0.48602E-06   -0.32264E-05  5960   0.563E-02    0.634E-03
DAV:   8    -0.410749718288E+02   -0.73040E-06   -0.16452E-06  7416   0.123E-02    0.265E-03
DAV:   9    -0.410749720044E+02   -0.17561E-06   -0.16963E-07  6392   0.455E-03    0.472E-04
DAV:  10    -0.410749720484E+02   -0.44012E-07   -0.12497E-08  3200   0.119E-03    0.106E-04
DAV:  11    -0.410749720526E+02   -0.41673E-08   -0.27462E-09  3080   0.451E-04
  11 F= -.41074972E+02 E0= -.41074868E+02  d E =-.685912E-04  mag=    -0.0000
 trial-energy change:   -0.000069  1 .order   -0.000097   -0.000594    0.000401
 step:   0.7015(harm=  0.7543)  dis= 0.00094  next Energy=   -41.075064 (dE=-0.160E-03)
 bond charge predicted
       N       E                     dE             d eps       ncg     rms          rms(c)
DAV:   1    -0.410816179161E+02   -0.66459E-02   -0.65264E-02  6720   0.346E+00    0.891E-01
DAV:   2    -0.411032414286E+02   -0.21624E-01   -0.16175E-01  6360   0.400E+00    0.169E+00
DAV:   3    -0.410757710022E+02    0.27470E-01   -0.85315E-02  6328   0.316E+00    0.375E-01
DAV:   4    -0.410752913750E+02    0.47963E-03   -0.69336E-03  6472   0.111E+00    0.157E-01
DAV:   5    -0.410750610148E+02    0.23036E-03   -0.52939E-04  7072   0.267E-01    0.297E-02
DAV:   6    -0.410750554526E+02    0.55621E-05   -0.39916E-05  6600   0.532E-02    0.935E-03
DAV:   7    -0.410750542853E+02    0.11673E-05   -0.29021E-06  7144   0.145E-02    0.282E-03
DAV:   8    -0.410750541049E+02    0.18041E-06   -0.40452E-07  6440   0.517E-03    0.145E-03
DAV:   9    -0.410750539814E+02    0.12352E-06   -0.69314E-08  5752   0.252E-03    0.201E-04
DAV:  10    -0.410750539507E+02    0.30659E-07   -0.44441E-09  3072   0.816E-04    0.662E-05
DAV:  11    -0.410750539480E+02    0.27776E-08   -0.71676E-10  2976   0.233E-04
  12 F= -.41075054E+02 E0= -.41074946E+02  d E =-.150487E-03  mag=     0.0000
 curvature:  -0.55 expect dE=-0.495E-05 dE for cont linesearch -0.872E-06
 trial: gam=-0.05115 g(F)=  0.279E-05 g(S)=  0.626E-05 ort = 0.332E-04 (trialstep = 0.115E+01)
 search vector abs. value=  0.746E-05
 reached required accuracy - stopping structural energy minimisation
 writing wavefunctions
